42695276
  -OEChem-11301217522D

 38 39  0     0  0  0  0  0  0999 V2000
    4.5981   -0.2500    0.0000 O   0  0  0  0  0  0  0  0  0  0  0  0
    3.7320    1.2500    0.0000 N   0  0  0  0  0  0  0  0  0  0  0  0
    2.8660   -0.2500    0.0000 N   0  0  0  0  0  0  0  0  0  0  0  0
    4.5981    1.7500    0.0000 C   0  0  0  0  0  0  0  0  0  0  0  0
    4.7026    2.7445    0.0000 C   0  0  0  0  0  0  0  0  0  0  0  0
    5.5116    1.3433    0.0000 C   0  0  0  0  0  0  0  0  0  0  0  0
    5.6808    2.9524    0.0000 C   0  0  0  0  0  0  0  0  0  0  0  0
    6.1808    2.0864    0.0000 C   0  0  0  0  0  0  0  0  0  0  0  0
    2.8660    1.7500    0.0000 C   0  0  0  0  0  0  0  0  0  0  0  0
    3.7320    0.2500    0.0000 C   0  0  0  0  0  0  0  0  0  0  0  0
    2.8660    2.7500    0.0000 C   0  0  0  0  0  0  0  0  0  0  0  0
    2.8660   -1.2500    0.0000 C   0  0  0  0  0  0  0  0  0  0  0  0
    2.0000    3.2500    0.0000 C   0  0  0  0  0  0  0  0  0  0  0  0
    2.0000   -1.7500    0.0000 C   0  0  0  0  0  0  0  0  0  0  0  0
    3.7320   -1.7500    0.0000 C   0  0  0  0  0  0  0  0  0  0  0  0
    2.0000   -2.7500    0.0000 C   0  0  0  0  0  0  0  0  0  0  0  0
    3.7320   -2.7500    0.0000 C   0  0  0  0  0  0  0  0  0  0  0  0
    2.8660   -3.2500    0.0000 C   0  0  0  0  0  0  0  0  0  0  0  0
    4.0781    2.0877    0.0000 H   0  0  0  0  0  0  0  0  0  0  0  0
    5.2016    0.8063    0.0000 H   0  0  0  0  0  0  0  0  0  0  0  0
    4.6378    3.3611    0.0000 H   0  0  0  0  0  0  0  0  0  0  0  0
    4.0826    2.7445    0.0000 H   0  0  0  0  0  0  0  0  0  0  0  0
    6.0132    0.9788    0.0000 H   0  0  0  0  0  0  0  0  0  0  0  0
    6.2472    3.2046    0.0000 H   0  0  0  0  0  0  0  0  0  0  0  0
    5.4892    3.5421    0.0000 H   0  0  0  0  0  0  0  0  0  0  0  0
    6.5956    1.6257    0.0000 H   0  0  0  0  0  0  0  0  0  0  0  0
    6.6823    2.4508    0.0000 H   0  0  0  0  0  0  0  0  0  0  0  0
    2.2554    1.8577    0.0000 H   0  0  0  0  0  0  0  0  0  0  0  0
    2.6540    1.1674    0.0000 H   0  0  0  0  0  0  0  0  0  0  0  0
    3.4030    3.0600    0.0000 H   0  0  0  0  0  0  0  0  0  0  0  0
    2.3291    0.0600    0.0000 H   0  0  0  0  0  0  0  0  0  0  0  0
    2.0000    3.8700    0.0000 H   0  0  0  0  0  0  0  0  0  0  0  0
    1.4631    2.9400    0.0000 H   0  0  0  0  0  0  0  0  0  0  0  0
    1.4631   -1.4400    0.0000 H   0  0  0  0  0  0  0  0  0  0  0  0
    4.2690   -1.4400    0.0000 H   0  0  0  0  0  0  0  0  0  0  0  0
    1.4631   -3.0600    0.0000 H   0  0  0  0  0  0  0  0  0  0  0  0
    4.2690   -3.0600    0.0000 H   0  0  0  0  0  0  0  0  0  0  0  0
    2.8660   -3.8700    0.0000 H   0  0  0  0  0  0  0  0  0  0  0  0
  1 10  2  0  0  0  0
  2  4  1  0  0  0  0
  2  9  1  0  0  0  0
  2 10  1  0  0  0  0
  3 10  1  0  0  0  0
  3 12  1  0  0  0  0
  3 31  1  0  0  0  0
  4  5  1  0  0  0  0
  4  6  1  0  0  0  0
  4 19  1  0  0  0  0
  5  7  1  0  0  0  0
  5 21  1  0  0  0  0
  5 22  1  0  0  0  0
  6  8  1  0  0  0  0
  6 20  1  0  0  0  0
  6 23  1  0  0  0  0
  7  8  1  0  0  0  0
  7 24  1  0  0  0  0
  7 25  1  0  0  0  0
  8 26  1  0  0  0  0
  8 27  1  0  0  0  0
  9 11  1  0  0  0  0
  9 28  1  0  0  0  0
  9 29  1  0  0  0  0
 11 13  2  0  0  0  0
 11 30  1  0  0  0  0
 12 14  2  0  0  0  0
 12 15  1  0  0  0  0
 13 32  1  0  0  0  0
 13 33  1  0  0  0  0
 14 16  1  0  0  0  0
 14 34  1  0  0  0  0
 15 17  2  0  0  0  0
 15 35  1  0  0  0  0
 16 18  2  0  0  0  0
 16 36  1  0  0  0  0
 17 18  1  0  0  0  0
 17 37  1  0  0  0  0
 18 38  1  0  0  0  0
M  END
> <PUBCHEM_COMPOUND_CID>
42695276

> <PUBCHEM_COMPOUND_CANONICALIZED>
1

> <PUBCHEM_CACTVS_COMPLEXITY>
278

> <PUBCHEM_CACTVS_HBOND_ACCEPTOR>
1

> <PUBCHEM_CACTVS_HBOND_DONOR>
1

> <PUBCHEM_CACTVS_ROTATABLE_BOND>
4

> <PUBCHEM_CACTVS_SUBSKEYS>
AAADceBzIAAAAAAAAAAAAAAAAAAAAYAAAAAwAAAAAAAAAAABAAAAHgAQAAAACCjBEAQxwIPAAACIACRCUACCAAAhAgAIiAAIZIiIICLAkZGEIAholgLIyCcQAAAAAAAAAAAAAAAAAAAAAAAAAAAAAAAAAA==

> <PUBCHEM_IUPAC_OPENEYE_NAME>
1-allyl-1-cyclopentyl-3-phenyl-urea

> <PUBCHEM_IUPAC_CAS_NAME>
1-cyclopentyl-3-phenyl-1-prop-2-enylurea

> <PUBCHEM_IUPAC_NAME>
1-cyclopentyl-3-phenyl-1-prop-2-enylurea

> <PUBCHEM_IUPAC_SYSTEMATIC_NAME>
1-cyclopentyl-3-phenyl-1-prop-2-enyl-urea

> <PUBCHEM_IUPAC_TRADITIONAL_NAME>
1-allyl-1-cyclopentyl-3-phenyl-urea

> <PUBCHEM_IUPAC_INCHI>
InChI=1S/C15H20N2O/c1-2-12-17(14-10-6-7-11-14)15(18)16-13-8-4-3-5-9-13/h2-5,8-9,14H,1,6-7,10-12H2,(H,16,18)

> <PUBCHEM_IUPAC_INCHIKEY>
IYYFFPLJTCIJEJ-UHFFFAOYSA-N

> <PUBCHEM_XLOGP3>
3.3

> <PUBCHEM_EXACT_MASS>
244.157563

> <PUBCHEM_MOLECULAR_FORMULA>
C15H20N2O

> <PUBCHEM_MOLECULAR_WEIGHT>
244.3321

> <PUBCHEM_OPENEYE_CAN_SMILES>
C=CCN(C1CCCC1)C(=O)NC2=CC=CC=C2

> <PUBCHEM_OPENEYE_ISO_SMILES>
C=CCN(C1CCCC1)C(=O)NC2=CC=CC=C2

> <PUBCHEM_CACTVS_TPSA>
32.3

> <PUBCHEM_MONOISOTOPIC_WEIGHT>
244.157563

> <PUBCHEM_TOTAL_CHARGE>
0

> <PUBCHEM_HEAVY_ATOM_COUNT>
18

> <PUBCHEM_ATOM_DEF_STEREO_COUNT>
0

> <PUBCHEM_ATOM_UDEF_STEREO_COUNT>
0

> <PUBCHEM_BOND_DEF_STEREO_COUNT>
0

> <PUBCHEM_BOND_UDEF_STEREO_COUNT>
0

> <PUBCHEM_ISOTOPIC_ATOM_COUNT>
0

> <PUBCHEM_COMPONENT_COUNT>
1

> <PUBCHEM_CACTVS_TAUTO_COUNT>
2

> <PUBCHEM_COORDINATE_TYPE>
1
5
255

> <PUBCHEM_BONDANNOTATIONS>
12  14  8
12  15  8
14  16  8
15  17  8
16  18  8
17  18  8

$$$$
42695350
  -OEChem-11301217522D

 42 45  0     1  0  0  0  0  0999 V2000
    6.2781    0.1364    0.0000 N   0  0  0  0  0  0  0  0  0  0  0  0
    4.6783   -3.5803    0.0000 N   0  0  0  0  0  0  0  0  0  0  0  0
    9.3508    2.1981    0.0000 C   0  0  3  0  0  0  0  0  0  0  0  0
    7.5673    1.2932    0.0000 C   0  0  3  0  0  0  0  0  0  0  0  0
    9.6615    3.1486    0.0000 C   0  0  3  0  0  0  0  0  0  0  0  0
    8.9791    4.1696    0.0000 C   0  0  0  0  0  0  0  0  0  0  0  0
    7.1148    2.1850    0.0000 C   0  0  0  0  0  0  0  0  0  0  0  0
   11.1391    1.3413    0.0000 C   0  0  0  0  0  0  0  0  0  0  0  0
   11.4498    2.2918    0.0000 C   0  0  0  0  0  0  0  0  0  0  0  0
    7.2566    0.3427    0.0000 C   0  0  0  0  0  0  0  0  0  0  0  0
    5.9674   -0.8141    0.0000 C   0  0  0  0  0  0  0  0  0  0  0  0
    4.9889   -1.0203    0.0000 C   0  0  0  0  0  0  0  0  0  0  0  0
    4.6783   -1.9708    0.0000 C   0  0  0  0  0  0  0  0  0  0  0  0
    3.7320   -2.2756    0.0000 C   0  0  0  0  0  0  0  0  0  0  0  0
    5.2619   -2.7756    0.0000 C   0  0  0  0  0  0  0  0  0  0  0  0
    3.7320   -3.2756    0.0000 C   0  0  0  0  0  0  0  0  0  0  0  0
    2.8660   -1.7756    0.0000 C   0  0  0  0  0  0  0  0  0  0  0  0
    2.8660   -3.7756    0.0000 C   0  0  0  0  0  0  0  0  0  0  0  0
    2.0000   -2.2756    0.0000 C   0  0  0  0  0  0  0  0  0  0  0  0
    2.0000   -3.2756    0.0000 C   0  0  0  0  0  0  0  0  0  0  0  0
    9.3579    1.5781    0.0000 H   0  0  0  0  0  0  0  0  0  0  0  0
    6.9491    1.2456    0.0000 H   0  0  0  0  0  0  0  0  0  0  0  0
    9.6352    2.5292    0.0000 H   0  0  0  0  0  0  0  0  0  0  0  0
    9.3252    4.6840    0.0000 H   0  0  0  0  0  0  0  0  0  0  0  0
    8.3718    4.2946    0.0000 H   0  0  0  0  0  0  0  0  0  0  0  0
    6.8747    2.7566    0.0000 H   0  0  0  0  0  0  0  0  0  0  0  0
    6.5522    1.9245    0.0000 H   0  0  0  0  0  0  0  0  0  0  0  0
   11.3829    0.7713    0.0000 H   0  0  0  0  0  0  0  0  0  0  0  0
   12.0198    2.5356    0.0000 H   0  0  0  0  0  0  0  0  0  0  0  0
    7.2772   -0.2770    0.0000 H   0  0  0  0  0  0  0  0  0  0  0  0
    7.8704    0.2553    0.0000 H   0  0  0  0  0  0  0  0  0  0  0  0
    5.8640    0.5979    0.0000 H   0  0  0  0  0  0  0  0  0  0  0  0
    5.9880   -1.4337    0.0000 H   0  0  0  0  0  0  0  0  0  0  0  0
    6.5812   -0.9014    0.0000 H   0  0  0  0  0  0  0  0  0  0  0  0
    4.9684   -0.4006    0.0000 H   0  0  0  0  0  0  0  0  0  0  0  0
    4.3751   -0.9329    0.0000 H   0  0  0  0  0  0  0  0  0  0  0  0
    5.8819   -2.7756    0.0000 H   0  0  0  0  0  0  0  0  0  0  0  0
    4.8709   -4.1696    0.0000 H   0  0  0  0  0  0  0  0  0  0  0  0
    2.8660   -1.1556    0.0000 H   0  0  0  0  0  0  0  0  0  0  0  0
    2.8660   -4.3956    0.0000 H   0  0  0  0  0  0  0  0  0  0  0  0
    1.4631   -1.9656    0.0000 H   0  0  0  0  0  0  0  0  0  0  0  0
    1.4631   -3.5856    0.0000 H   0  0  0  0  0  0  0  0  0  0  0  0
  1 10  1  0  0  0  0
  1 11  1  0  0  0  0
  1 32  1  0  0  0  0
  2 15  1  0  0  0  0
  2 16  1  0  0  0  0
  2 38  1  0  0  0  0
  3  4  1  0  0  0  0
  3  6  1  0  0  0  0
  3  8  1  0  0  0  0
  3 21  1  0  0  0  0
  4  7  1  0  0  0  0
  4 10  1  0  0  0  0
  4 22  1  0  0  0  0
  5  6  1  0  0  0  0
  5  7  1  0  0  0  0
  5  9  1  0  0  0  0
  5 23  1  0  0  0  0
  6 24  1  0  0  0  0
  6 25  1  0  0  0  0
  7 26  1  0  0  0  0
  7 27  1  0  0  0  0
  8  9  2  0  0  0  0
  8 28  1  0  0  0  0
  9 29  1  0  0  0  0
 10 30  1  0  0  0  0
 10 31  1  0  0  0  0
 11 12  1  0  0  0  0
 11 33  1  0  0  0  0
 11 34  1  0  0  0  0
 12 13  1  0  0  0  0
 12 35  1  0  0  0  0
 12 36  1  0  0  0  0
 13 14  1  0  0  0  0
 13 15  2  0  0  0  0
 14 16  1  0  0  0  0
 14 17  2  0  0  0  0
 15 37  1  0  0  0  0
 16 18  2  0  0  0  0
 17 19  1  0  0  0  0
 17 39  1  0  0  0  0
 18 20  1  0  0  0  0
 18 40  1  0  0  0  0
 19 20  2  0  0  0  0
 19 41  1  0  0  0  0
 20 42  1  0  0  0  0
M  END
> <PUBCHEM_COMPOUND_CID>
42695350

> <PUBCHEM_COMPOUND_CANONICALIZED>
1

> <PUBCHEM_CACTVS_COMPLEXITY>
364

> <PUBCHEM_CACTVS_HBOND_ACCEPTOR>
1

> <PUBCHEM_CACTVS_HBOND_DONOR>
2

> <PUBCHEM_CACTVS_ROTATABLE_BOND>
5

> <PUBCHEM_CACTVS_SUBSKEYS>
AAADceB7AAAAAAAAAAAAAAAAAAAAAeIEAAAwQAAAAAAAAFgB8AAAHAAQAAAADQjBHgQ8wPLJkACgAzRnRACCgCAxAiAI2aA4ZJgIIOLAkZGEIAhgkADIyAcQgMAOgAAAAAACAAAAAAAAAAQAAQAACAAAAA==

> <PUBCHEM_IUPAC_OPENEYE_NAME>
N-(5-bicyclo[2.2.1]hept-2-enylmethyl)-2-(1H-indol-3-yl)ethanamine

> <PUBCHEM_IUPAC_CAS_NAME>
N-(5-bicyclo[2.2.1]hept-2-enylmethyl)-2-(1H-indol-3-yl)ethanamine

> <PUBCHEM_IUPAC_NAME>
N-(5-bicyclo[2.2.1]hept-2-enylmethyl)-2-(1H-indol-3-yl)ethanamine

> <PUBCHEM_IUPAC_SYSTEMATIC_NAME>
N-(5-bicyclo[2.2.1]hept-2-enylmethyl)-2-(1H-indol-3-yl)ethanamine

> <PUBCHEM_IUPAC_TRADITIONAL_NAME>
5-bicyclo[2.2.1]hept-2-enylmethyl-[2-(1H-indol-3-yl)ethyl]amine

> <PUBCHEM_IUPAC_INCHI>
InChI=1S/C18H22N2/c1-2-4-18-17(3-1)15(12-20-18)7-8-19-11-16-10-13-5-6-14(16)9-13/h1-6,12-14,16,19-20H,7-11H2

> <PUBCHEM_IUPAC_INCHIKEY>
XWFMXSRGMHXIPG-UHFFFAOYSA-N

> <PUBCHEM_XLOGP3>
3.7

> <PUBCHEM_EXACT_MASS>
266.178299

> <PUBCHEM_MOLECULAR_FORMULA>
C18H22N2

> <PUBCHEM_MOLECULAR_WEIGHT>
266.38068

> <PUBCHEM_OPENEYE_CAN_SMILES>
C1C2CC(C1C=C2)CNCCC3=CNC4=CC=CC=C43

> <PUBCHEM_OPENEYE_ISO_SMILES>
C1C2CC(C1C=C2)CNCCC3=CNC4=CC=CC=C43

> <PUBCHEM_CACTVS_TPSA>
27.8

> <PUBCHEM_MONOISOTOPIC_WEIGHT>
266.178299

> <PUBCHEM_TOTAL_CHARGE>
0

> <PUBCHEM_HEAVY_ATOM_COUNT>
20

> <PUBCHEM_ATOM_DEF_STEREO_COUNT>
0

> <PUBCHEM_ATOM_UDEF_STEREO_COUNT>
3

> <PUBCHEM_BOND_DEF_STEREO_COUNT>
0

> <PUBCHEM_BOND_UDEF_STEREO_COUNT>
0

> <PUBCHEM_ISOTOPIC_ATOM_COUNT>
0

> <PUBCHEM_COMPONENT_COUNT>
1

> <PUBCHEM_CACTVS_TAUTO_COUNT>
1

> <PUBCHEM_COORDINATE_TYPE>
1
5
255

> <PUBCHEM_BONDANNOTATIONS>
13  14  8
13  15  8
14  16  8
14  17  8
16  18  8
17  19  8
18  20  8
19  20  8
2  15  8
2  16  8
3  6  3
4  10  3
5  6  3

$$$$
42695888
  -OEChem-11301217522D

 45 47  0     0  0  0  0  0  0999 V2000
    5.9209    2.3190    0.0000 O   0  0  0  0  0  0  0  0  0  0  0  0
    6.2781    0.6241    0.0000 N   0  0  0  0  0  0  0  0  0  0  0  0
    4.6783   -3.0926    0.0000 N   0  0  0  0  0  0  0  0  0  0  0  0
    4.9889   -0.5326    0.0000 C   0  0  0  0  0  0  0  0  0  0  0  0
    5.9674   -0.3264    0.0000 C   0  0  0  0  0  0  0  0  0  0  0  0
    4.6783   -1.4831    0.0000 C   0  0  0  0  0  0  0  0  0  0  0  0
    3.7320   -1.7879    0.0000 C   0  0  0  0  0  0  0  0  0  0  0  0
    7.2566    0.8304    0.0000 C   0  0  0  0  0  0  0  0  0  0  0  0
    3.7320   -2.7879    0.0000 C   0  0  0  0  0  0  0  0  0  0  0  0
    5.2619   -2.2879    0.0000 C   0  0  0  0  0  0  0  0  0  0  0  0
    5.6103    1.3684    0.0000 C   0  0  0  0  0  0  0  0  0  0  0  0
    7.5673    1.7809    0.0000 C   0  0  0  0  0  0  0  0  0  0  0  0
    2.8660   -1.2879    0.0000 C   0  0  0  0  0  0  0  0  0  0  0  0
    4.6318    1.1622    0.0000 C   0  0  0  0  0  0  0  0  0  0  0  0
    2.8660   -3.2879    0.0000 C   0  0  0  0  0  0  0  0  0  0  0  0
    2.0000   -1.7879    0.0000 C   0  0  0  0  0  0  0  0  0  0  0  0
    2.0000   -2.7879    0.0000 C   0  0  0  0  0  0  0  0  0  0  0  0
    8.5458    1.9871    0.0000 C   0  0  0  0  0  0  0  0  0  0  0  0
    6.8994    2.5252    0.0000 C   0  0  0  0  0  0  0  0  0  0  0  0
    3.9639    1.9065    0.0000 C   0  0  0  0  0  0  0  0  0  0  0  0
    8.8564    2.9376    0.0000 C   0  0  0  0  0  0  0  0  0  0  0  0
    7.2101    3.4757    0.0000 C   0  0  0  0  0  0  0  0  0  0  0  0
    8.1886    3.6819    0.0000 C   0  0  0  0  0  0  0  0  0  0  0  0
    4.9684    0.0871    0.0000 H   0  0  0  0  0  0  0  0  0  0  0  0
    4.3751   -0.4453    0.0000 H   0  0  0  0  0  0  0  0  0  0  0  0
    5.9880   -0.9460    0.0000 H   0  0  0  0  0  0  0  0  0  0  0  0
    6.5812   -0.4137    0.0000 H   0  0  0  0  0  0  0  0  0  0  0  0
    7.2772    0.2107    0.0000 H   0  0  0  0  0  0  0  0  0  0  0  0
    7.8704    0.7430    0.0000 H   0  0  0  0  0  0  0  0  0  0  0  0
    5.8819   -2.2879    0.0000 H   0  0  0  0  0  0  0  0  0  0  0  0
    4.8709   -3.6819    0.0000 H   0  0  0  0  0  0  0  0  0  0  0  0
    2.8660   -0.6679    0.0000 H   0  0  0  0  0  0  0  0  0  0  0  0
    4.1054    0.8346    0.0000 H   0  0  0  0  0  0  0  0  0  0  0  0
    4.8630    0.5870    0.0000 H   0  0  0  0  0  0  0  0  0  0  0  0
    2.8660   -3.9079    0.0000 H   0  0  0  0  0  0  0  0  0  0  0  0
    1.4631   -1.4779    0.0000 H   0  0  0  0  0  0  0  0  0  0  0  0
    1.4631   -3.0979    0.0000 H   0  0  0  0  0  0  0  0  0  0  0  0
    8.9598    1.5256    0.0000 H   0  0  0  0  0  0  0  0  0  0  0  0
    6.2928    2.3973    0.0000 H   0  0  0  0  0  0  0  0  0  0  0  0
    4.4254    2.3206    0.0000 H   0  0  0  0  0  0  0  0  0  0  0  0
    3.5498    2.3680    0.0000 H   0  0  0  0  0  0  0  0  0  0  0  0
    3.5024    1.4925    0.0000 H   0  0  0  0  0  0  0  0  0  0  0  0
    9.4631    3.0655    0.0000 H   0  0  0  0  0  0  0  0  0  0  0  0
    6.7960    3.9372    0.0000 H   0  0  0  0  0  0  0  0  0  0  0  0
    8.3812    4.2712    0.0000 H   0  0  0  0  0  0  0  0  0  0  0  0
  1 11  2  0  0  0  0
  2  5  1  0  0  0  0
  2  8  1  0  0  0  0
  2 11  1  0  0  0  0
  3  9  1  0  0  0  0
  3 10  1  0  0  0  0
  3 31  1  0  0  0  0
  4  5  1  0  0  0  0
  4  6  1  0  0  0  0
  4 24  1  0  0  0  0
  4 25  1  0  0  0  0
  5 26  1  0  0  0  0
  5 27  1  0  0  0  0
  6  7  1  0  0  0  0
  6 10  2  0  0  0  0
  7  9  1  0  0  0  0
  7 13  2  0  0  0  0
  8 12  1  0  0  0  0
  8 28  1  0  0  0  0
  8 29  1  0  0  0  0
  9 15  2  0  0  0  0
 10 30  1  0  0  0  0
 11 14  1  0  0  0  0
 12 18  2  0  0  0  0
 12 19  1  0  0  0  0
 13 16  1  0  0  0  0
 13 32  1  0  0  0  0
 14 20  1  0  0  0  0
 14 33  1  0  0  0  0
 14 34  1  0  0  0  0
 15 17  1  0  0  0  0
 15 35  1  0  0  0  0
 16 17  2  0  0  0  0
 16 36  1  0  0  0  0
 17 37  1  0  0  0  0
 18 21  1  0  0  0  0
 18 38  1  0  0  0  0
 19 22  2  0  0  0  0
 19 39  1  0  0  0  0
 20 40  1  0  0  0  0
 20 41  1  0  0  0  0
 20 42  1  0  0  0  0
 21 23  2  0  0  0  0
 21 43  1  0  0  0  0
 22 23  1  0  0  0  0
 22 44  1  0  0  0  0
 23 45  1  0  0  0  0
M  END
> <PUBCHEM_COMPOUND_CID>
42695888

> <PUBCHEM_COMPOUND_CANONICALIZED>
1

> <PUBCHEM_CACTVS_COMPLEXITY>
378

> <PUBCHEM_CACTVS_HBOND_ACCEPTOR>
1

> <PUBCHEM_CACTVS_HBOND_DONOR>
1

> <PUBCHEM_CACTVS_ROTATABLE_BOND>
6

> <PUBCHEM_CACTVS_SUBSKEYS>
AAADceB7IAAAAAAAAAAAAAAAAAAAAWAAAAAwYAAAAAAAAFgB9AAAHgAQAAAADAjBngQ+wPPJkACoAzV3VACCgCAxAiAI2aE4ZJgIIOLAkZGEIAhglgDIyAcQgMAOgAAAAAACAAAAAAAAAAQAAAAAAAAAAA==

> <PUBCHEM_IUPAC_OPENEYE_NAME>
N-benzyl-N-[2-(1H-indol-3-yl)ethyl]propanamide

> <PUBCHEM_IUPAC_CAS_NAME>
N-[2-(1H-indol-3-yl)ethyl]-N-(phenylmethyl)propanamide

> <PUBCHEM_IUPAC_NAME>
N-benzyl-N-[2-(1H-indol-3-yl)ethyl]propanamide

> <PUBCHEM_IUPAC_SYSTEMATIC_NAME>
N-[2-(1H-indol-3-yl)ethyl]-N-(phenylmethyl)propanamide

> <PUBCHEM_IUPAC_TRADITIONAL_NAME>
N-benzyl-N-[2-(1H-indol-3-yl)ethyl]propionamide

> <PUBCHEM_IUPAC_INCHI>
InChI=1S/C20H22N2O/c1-2-20(23)22(15-16-8-4-3-5-9-16)13-12-17-14-21-19-11-7-6-10-18(17)19/h3-11,14,21H,2,12-13,15H2,1H3

> <PUBCHEM_IUPAC_INCHIKEY>
XIFLOGLAYFEREB-UHFFFAOYSA-N

> <PUBCHEM_XLOGP3>
4

> <PUBCHEM_EXACT_MASS>
306.173213

> <PUBCHEM_MOLECULAR_FORMULA>
C20H22N2O

> <PUBCHEM_MOLECULAR_WEIGHT>
306.40148

> <PUBCHEM_OPENEYE_CAN_SMILES>
CCC(=O)N(CCC1=CNC2=CC=CC=C21)CC3=CC=CC=C3

> <PUBCHEM_OPENEYE_ISO_SMILES>
CCC(=O)N(CCC1=CNC2=CC=CC=C21)CC3=CC=CC=C3

> <PUBCHEM_CACTVS_TPSA>
36.1

> <PUBCHEM_MONOISOTOPIC_WEIGHT>
306.173213

> <PUBCHEM_TOTAL_CHARGE>
0

> <PUBCHEM_HEAVY_ATOM_COUNT>
23

> <PUBCHEM_ATOM_DEF_STEREO_COUNT>
0

> <PUBCHEM_ATOM_UDEF_STEREO_COUNT>
0

> <PUBCHEM_BOND_DEF_STEREO_COUNT>
0

> <PUBCHEM_BOND_UDEF_STEREO_COUNT>
0

> <PUBCHEM_ISOTOPIC_ATOM_COUNT>
0

> <PUBCHEM_COMPONENT_COUNT>
1

> <PUBCHEM_CACTVS_TAUTO_COUNT>
1

> <PUBCHEM_COORDINATE_TYPE>
1
5
255

> <PUBCHEM_BONDANNOTATIONS>
12  18  8
12  19  8
13  16  8
15  17  8
16  17  8
18  21  8
19  22  8
21  23  8
22  23  8
3  10  8
3  9  8
6  10  8
6  7  8
7  13  8
7  9  8
9  15  8

$$$$
42695889
  -OEChem-11301217522D

 51 53  0     0  0  0  0  0  0999 V2000
    7.5673    1.5118    0.0000 O   0  0  0  0  0  0  0  0  0  0  0  0
    6.2781    0.3551    0.0000 N   0  0  0  0  0  0  0  0  0  0  0  0
    4.6783   -3.3616    0.0000 N   0  0  0  0  0  0  0  0  0  0  0  0
    5.9674   -0.5954    0.0000 C   0  0  0  0  0  0  0  0  0  0  0  0
    4.9889   -0.8016    0.0000 C   0  0  0  0  0  0  0  0  0  0  0  0
    4.6783   -1.7522    0.0000 C   0  0  0  0  0  0  0  0  0  0  0  0
    5.6103    1.0994    0.0000 C   0  0  0  0  0  0  0  0  0  0  0  0
    3.7320   -2.0569    0.0000 C   0  0  0  0  0  0  0  0  0  0  0  0
    7.2566    0.5613    0.0000 C   0  0  0  0  0  0  0  0  0  0  0  0
    7.9244   -0.1830    0.0000 C   0  0  0  0  0  0  0  0  0  0  0  0
    3.7320   -3.0569    0.0000 C   0  0  0  0  0  0  0  0  0  0  0  0
    8.9030    0.0232    0.0000 C   0  0  0  0  0  0  0  0  0  0  0  0
    5.2619   -2.5569    0.0000 C   0  0  0  0  0  0  0  0  0  0  0  0
    5.9209    2.0499    0.0000 C   0  0  0  0  0  0  0  0  0  0  0  0
    9.5708   -0.7211    0.0000 C   0  0  0  0  0  0  0  0  0  0  0  0
    2.8660   -1.5569    0.0000 C   0  0  0  0  0  0  0  0  0  0  0  0
    2.8660   -3.5569    0.0000 C   0  0  0  0  0  0  0  0  0  0  0  0
    2.0000   -2.0569    0.0000 C   0  0  0  0  0  0  0  0  0  0  0  0
    6.8994    2.2561    0.0000 C   0  0  0  0  0  0  0  0  0  0  0  0
    5.2531    2.7942    0.0000 C   0  0  0  0  0  0  0  0  0  0  0  0
    2.0000   -3.0569    0.0000 C   0  0  0  0  0  0  0  0  0  0  0  0
   10.5493   -0.5149    0.0000 C   0  0  0  0  0  0  0  0  0  0  0  0
    7.2101    3.2066    0.0000 C   0  0  0  0  0  0  0  0  0  0  0  0
    5.5637    3.7447    0.0000 C   0  0  0  0  0  0  0  0  0  0  0  0
    6.5422    3.9510    0.0000 C   0  0  0  0  0  0  0  0  0  0  0  0
    5.9880   -1.2151    0.0000 H   0  0  0  0  0  0  0  0  0  0  0  0
    6.5812   -0.6828    0.0000 H   0  0  0  0  0  0  0  0  0  0  0  0
    4.9684   -0.1820    0.0000 H   0  0  0  0  0  0  0  0  0  0  0  0
    4.3751   -0.7143    0.0000 H   0  0  0  0  0  0  0  0  0  0  0  0
    5.0633    1.3914    0.0000 H   0  0  0  0  0  0  0  0  0  0  0  0
    5.2277    0.6115    0.0000 H   0  0  0  0  0  0  0  0  0  0  0  0
    7.3981   -0.5106    0.0000 H   0  0  0  0  0  0  0  0  0  0  0  0
    8.1557   -0.7582    0.0000 H   0  0  0  0  0  0  0  0  0  0  0  0
    9.4293    0.3509    0.0000 H   0  0  0  0  0  0  0  0  0  0  0  0
    8.6717    0.5985    0.0000 H   0  0  0  0  0  0  0  0  0  0  0  0
    5.8819   -2.5569    0.0000 H   0  0  0  0  0  0  0  0  0  0  0  0
    4.8709   -3.9510    0.0000 H   0  0  0  0  0  0  0  0  0  0  0  0
    9.0444   -1.0487    0.0000 H   0  0  0  0  0  0  0  0  0  0  0  0
    9.8021   -1.2963    0.0000 H   0  0  0  0  0  0  0  0  0  0  0  0
    2.8660   -0.9369    0.0000 H   0  0  0  0  0  0  0  0  0  0  0  0
    2.8660   -4.1769    0.0000 H   0  0  0  0  0  0  0  0  0  0  0  0
    1.4631   -1.7469    0.0000 H   0  0  0  0  0  0  0  0  0  0  0  0
    7.3135    1.7947    0.0000 H   0  0  0  0  0  0  0  0  0  0  0  0
    4.6464    2.6664    0.0000 H   0  0  0  0  0  0  0  0  0  0  0  0
    1.4631   -3.3669    0.0000 H   0  0  0  0  0  0  0  0  0  0  0  0
   10.6772   -1.1215    0.0000 H   0  0  0  0  0  0  0  0  0  0  0  0
   11.1560   -0.3870    0.0000 H   0  0  0  0  0  0  0  0  0  0  0  0
   10.4215    0.0918    0.0000 H   0  0  0  0  0  0  0  0  0  0  0  0
    7.8168    3.3345    0.0000 H   0  0  0  0  0  0  0  0  0  0  0  0
    5.1497    4.2062    0.0000 H   0  0  0  0  0  0  0  0  0  0  0  0
    6.7349    4.5403    0.0000 H   0  0  0  0  0  0  0  0  0  0  0  0
  1  9  2  0  0  0  0
  2  4  1  0  0  0  0
  2  7  1  0  0  0  0
  2  9  1  0  0  0  0
  3 11  1  0  0  0  0
  3 13  1  0  0  0  0
  3 37  1  0  0  0  0
  4  5  1  0  0  0  0
  4 26  1  0  0  0  0
  4 27  1  0  0  0  0
  5  6  1  0  0  0  0
  5 28  1  0  0  0  0
  5 29  1  0  0  0  0
  6  8  1  0  0  0  0
  6 13  2  0  0  0  0
  7 14  1  0  0  0  0
  7 30  1  0  0  0  0
  7 31  1  0  0  0  0
  8 11  1  0  0  0  0
  8 16  2  0  0  0  0
  9 10  1  0  0  0  0
 10 12  1  0  0  0  0
 10 32  1  0  0  0  0
 10 33  1  0  0  0  0
 11 17  2  0  0  0  0
 12 15  1  0  0  0  0
 12 34  1  0  0  0  0
 12 35  1  0  0  0  0
 13 36  1  0  0  0  0
 14 19  2  0  0  0  0
 14 20  1  0  0  0  0
 15 22  1  0  0  0  0
 15 38  1  0  0  0  0
 15 39  1  0  0  0  0
 16 18  1  0  0  0  0
 16 40  1  0  0  0  0
 17 21  1  0  0  0  0
 17 41  1  0  0  0  0
 18 21  2  0  0  0  0
 18 42  1  0  0  0  0
 19 23  1  0  0  0  0
 19 43  1  0  0  0  0
 20 24  2  0  0  0  0
 20 44  1  0  0  0  0
 21 45  1  0  0  0  0
 22 46  1  0  0  0  0
 22 47  1  0  0  0  0
 22 48  1  0  0  0  0
 23 25  2  0  0  0  0
 23 49  1  0  0  0  0
 24 25  1  0  0  0  0
 24 50  1  0  0  0  0
 25 51  1  0  0  0  0
M  END
> <PUBCHEM_COMPOUND_CID>
42695889

> <PUBCHEM_COMPOUND_CANONICALIZED>
1

> <PUBCHEM_CACTVS_COMPLEXITY>
405

> <PUBCHEM_CACTVS_HBOND_ACCEPTOR>
1

> <PUBCHEM_CACTVS_HBOND_DONOR>
1

> <PUBCHEM_CACTVS_ROTATABLE_BOND>
8

> <PUBCHEM_CACTVS_SUBSKEYS>
AAADceB7IAAAAAAAAAAAAAAAAAAAAWAAAAAwYAAAAAAAAFgB9AAAHgAQAAAADAjBngQ+wPPJkACoAzV3VACCgCAxAiAI2aE4ZJgIIPLAkZGEIAhglgDIyAcYgMAOgAAAAAACAAAAAAAAAAQAAAAAAAAAAA==

> <PUBCHEM_IUPAC_OPENEYE_NAME>
N-benzyl-N-[2-(1H-indol-3-yl)ethyl]pentanamide

> <PUBCHEM_IUPAC_CAS_NAME>
N-[2-(1H-indol-3-yl)ethyl]-N-(phenylmethyl)pentanamide

> <PUBCHEM_IUPAC_NAME>
N-benzyl-N-[2-(1H-indol-3-yl)ethyl]pentanamide

> <PUBCHEM_IUPAC_SYSTEMATIC_NAME>
N-[2-(1H-indol-3-yl)ethyl]-N-(phenylmethyl)pentanamide

> <PUBCHEM_IUPAC_TRADITIONAL_NAME>
N-benzyl-N-[2-(1H-indol-3-yl)ethyl]valeramide

> <PUBCHEM_IUPAC_INCHI>
InChI=1S/C22H26N2O/c1-2-3-13-22(25)24(17-18-9-5-4-6-10-18)15-14-19-16-23-21-12-8-7-11-20(19)21/h4-12,16,23H,2-3,13-15,17H2,1H3

> <PUBCHEM_IUPAC_INCHIKEY>
OOKNBGDKACEIBZ-UHFFFAOYSA-N

> <PUBCHEM_XLOGP3>
4.9

> <PUBCHEM_EXACT_MASS>
334.204513

> <PUBCHEM_MOLECULAR_FORMULA>
C22H26N2O

> <PUBCHEM_MOLECULAR_WEIGHT>
334.45464

> <PUBCHEM_OPENEYE_CAN_SMILES>
CCCCC(=O)N(CCC1=CNC2=CC=CC=C21)CC3=CC=CC=C3

> <PUBCHEM_OPENEYE_ISO_SMILES>
CCCCC(=O)N(CCC1=CNC2=CC=CC=C21)CC3=CC=CC=C3

> <PUBCHEM_CACTVS_TPSA>
36.1

> <PUBCHEM_MONOISOTOPIC_WEIGHT>
334.204513

> <PUBCHEM_TOTAL_CHARGE>
0

> <PUBCHEM_HEAVY_ATOM_COUNT>
25

> <PUBCHEM_ATOM_DEF_STEREO_COUNT>
0

> <PUBCHEM_ATOM_UDEF_STEREO_COUNT>
0

> <PUBCHEM_BOND_DEF_STEREO_COUNT>
0

> <PUBCHEM_BOND_UDEF_STEREO_COUNT>
0

> <PUBCHEM_ISOTOPIC_ATOM_COUNT>
0

> <PUBCHEM_COMPONENT_COUNT>
1

> <PUBCHEM_CACTVS_TAUTO_COUNT>
1

> <PUBCHEM_COORDINATE_TYPE>
1
5
255

> <PUBCHEM_BONDANNOTATIONS>
11  17  8
14  19  8
14  20  8
16  18  8
17  21  8
18  21  8
19  23  8
20  24  8
23  25  8
24  25  8
3  11  8
3  13  8
6  13  8
6  8  8
8  11  8
8  16  8

$$$$
