49926625
  -OEChem-11301217592D

 29 30  0     0  0  0  0  0  0999 V2000
    3.7320    4.2500    0.0000 Cl  0  0  0  0  0  0  0  0  0  0  0  0
    2.0000    0.2500    0.0000 O   0  5  0  0  0  0  0  0  0  0  0  0
    2.8660   -0.2500    0.0000 N   0  3  0  0  0  0  0  0  0  0  0  0
    2.8660   -1.2500    0.0000 C   0  0  0  0  0  0  0  0  0  0  0  0
    2.8660   -3.2500    0.0000 C   0  0  0  0  0  0  0  0  0  0  0  0
    2.0000   -1.7500    0.0000 C   0  0  0  0  0  0  0  0  0  0  0  0
    3.7320   -1.7500    0.0000 C   0  0  0  0  0  0  0  0  0  0  0  0
    3.7320    1.2500    0.0000 C   0  0  0  0  0  0  0  0  0  0  0  0
    2.0000   -2.7500    0.0000 C   0  0  0  0  0  0  0  0  0  0  0  0
    3.7320   -2.7500    0.0000 C   0  0  0  0  0  0  0  0  0  0  0  0
    3.7320    0.2500    0.0000 C   0  0  0  0  0  0  0  0  0  0  0  0
    2.8660   -4.2500    0.0000 C   0  0  0  0  0  0  0  0  0  0  0  0
    4.5981    1.7500    0.0000 C   0  0  0  0  0  0  0  0  0  0  0  0
    2.8660    1.7500    0.0000 C   0  0  0  0  0  0  0  0  0  0  0  0
    4.5981    2.7500    0.0000 C   0  0  0  0  0  0  0  0  0  0  0  0
    2.8660    2.7500    0.0000 C   0  0  0  0  0  0  0  0  0  0  0  0
    3.7320    3.2500    0.0000 C   0  0  0  0  0  0  0  0  0  0  0  0
    1.4631   -1.4400    0.0000 H   0  0  0  0  0  0  0  0  0  0  0  0
    4.2690   -1.4400    0.0000 H   0  0  0  0  0  0  0  0  0  0  0  0
    1.4631   -3.0600    0.0000 H   0  0  0  0  0  0  0  0  0  0  0  0
    4.2690   -3.0600    0.0000 H   0  0  0  0  0  0  0  0  0  0  0  0
    4.2690   -0.0600    0.0000 H   0  0  0  0  0  0  0  0  0  0  0  0
    2.2460   -4.2500    0.0000 H   0  0  0  0  0  0  0  0  0  0  0  0
    2.8660   -4.8700    0.0000 H   0  0  0  0  0  0  0  0  0  0  0  0
    3.4860   -4.2500    0.0000 H   0  0  0  0  0  0  0  0  0  0  0  0
    5.1350    1.4400    0.0000 H   0  0  0  0  0  0  0  0  0  0  0  0
    2.3291    1.4400    0.0000 H   0  0  0  0  0  0  0  0  0  0  0  0
    5.1350    3.0600    0.0000 H   0  0  0  0  0  0  0  0  0  0  0  0
    2.3291    3.0600    0.0000 H   0  0  0  0  0  0  0  0  0  0  0  0
  1 17  1  0  0  0  0
  2  3  1  0  0  0  0
  3  4  1  0  0  0  0
  3 11  2  3  0  0  0
  4  6  2  0  0  0  0
  4  7  1  0  0  0  0
  5  9  2  0  0  0  0
  5 10  1  0  0  0  0
  5 12  1  0  0  0  0
  6  9  1  0  0  0  0
  6 18  1  0  0  0  0
  7 10  2  0  0  0  0
  7 19  1  0  0  0  0
  8 11  1  0  0  0  0
  8 13  2  0  0  0  0
  8 14  1  0  0  0  0
  9 20  1  0  0  0  0
 10 21  1  0  0  0  0
 11 22  1  0  0  0  0
 12 23  1  0  0  0  0
 12 24  1  0  0  0  0
 12 25  1  0  0  0  0
 13 15  1  0  0  0  0
 13 26  1  0  0  0  0
 14 16  2  0  0  0  0
 14 27  1  0  0  0  0
 15 17  2  0  0  0  0
 15 28  1  0  0  0  0
 16 17  1  0  0  0  0
 16 29  1  0  0  0  0
M  CHG  2   2  -1   3   1
M  END
> <PUBCHEM_COMPOUND_CID>
49926625

> <PUBCHEM_COMPOUND_CANONICALIZED>
1

> <PUBCHEM_CACTVS_COMPLEXITY>
263

> <PUBCHEM_CACTVS_HBOND_ACCEPTOR>
1

> <PUBCHEM_CACTVS_HBOND_DONOR>
0

> <PUBCHEM_CACTVS_ROTATABLE_BOND>
2

> <PUBCHEM_CACTVS_SUBSKEYS>
AAADccByIAAEAAAAAAAAAAAAAAAAAAAAAAAwYAAAAAAAAAABQAAAHAIEAAAADArBGCQywIIQAACgAjRjRACCAAAgBwAoiAAgZpoIIKKBk5GAIABggAAIyAcQgAAODAAAAAAAAAAYAAAAAAAAAAAAAAAAAA==

> <PUBCHEM_IUPAC_OPENEYE_NAME>
1-(4-chlorophenyl)-N-(p-tolyl)methanimine oxide

> <PUBCHEM_IUPAC_CAS_NAME>
1-(4-chlorophenyl)-N-(4-methylphenyl)methanimine oxide

> <PUBCHEM_IUPAC_NAME>
1-(4-chlorophenyl)-N-(4-methylphenyl)methanimine oxide

> <PUBCHEM_IUPAC_SYSTEMATIC_NAME>
1-(4-chlorophenyl)-N-(4-methylphenyl)methanimine oxide

> <PUBCHEM_IUPAC_TRADITIONAL_NAME>
1-(4-chlorophenyl)-N-(p-tolyl)methanimine oxide

> <PUBCHEM_IUPAC_INCHI>
InChI=1S/C14H12ClNO/c1-11-2-8-14(9-3-11)16(17)10-12-4-6-13(15)7-5-12/h2-10H,1H3

> <PUBCHEM_IUPAC_INCHIKEY>
LBMUKQKRSCDVIW-UHFFFAOYSA-N

> <PUBCHEM_XLOGP3>
3

> <PUBCHEM_EXACT_MASS>
245.060742

> <PUBCHEM_MOLECULAR_FORMULA>
C14H12ClNO

> <PUBCHEM_MOLECULAR_WEIGHT>
245.70418

> <PUBCHEM_OPENEYE_CAN_SMILES>
CC1=CC=C(C=C1)[N+](=CC2=CC=C(C=C2)Cl)[O-]

> <PUBCHEM_OPENEYE_ISO_SMILES>
CC1=CC=C(C=C1)[N+](=CC2=CC=C(C=C2)Cl)[O-]

> <PUBCHEM_CACTVS_TPSA>
28.8

> <PUBCHEM_MONOISOTOPIC_WEIGHT>
245.060742

> <PUBCHEM_TOTAL_CHARGE>
0

> <PUBCHEM_HEAVY_ATOM_COUNT>
17

> <PUBCHEM_ATOM_DEF_STEREO_COUNT>
0

> <PUBCHEM_ATOM_UDEF_STEREO_COUNT>
0

> <PUBCHEM_BOND_DEF_STEREO_COUNT>
0

> <PUBCHEM_BOND_UDEF_STEREO_COUNT>
1

> <PUBCHEM_ISOTOPIC_ATOM_COUNT>
0

> <PUBCHEM_COMPONENT_COUNT>
1

> <PUBCHEM_CACTVS_TAUTO_COUNT>
1

> <PUBCHEM_COORDINATE_TYPE>
1
5
255

> <PUBCHEM_BONDANNOTATIONS>
13  15  8
14  16  8
15  17  8
16  17  8
3  11  1
4  6  8
4  7  8
5  10  8
5  9  8
6  9  8
7  10  8
8  13  8
8  14  8

$$$$
49949396
  -OEChem-11301218002D

 46 48  0     1  0  0  0  0  0999 V2000
    5.3461   -0.0611    0.0000 N   0  0  0  0  0  0  0  0  0  0  0  0
    6.8894    0.6801    0.0000 C   0  0  3  0  0  0  0  0  0  0  0  0
    7.7256   -0.7682    0.0000 C   0  0  3  0  0  0  0  0  0  0  0  0
    6.0532   -0.7682    0.0000 C   0  0  0  0  0  0  0  0  0  0  0  0
    6.1983   -1.2033    0.0000 C   0  0  0  0  0  0  0  0  0  0  0  0
    7.7256    0.1973    0.0000 C   0  0  0  0  0  0  0  0  0  0  0  0
    6.0532    0.1973    0.0000 C   0  0  0  0  0  0  0  0  0  0  0  0
    6.8894   -1.0710    0.0000 C   0  0  0  0  0  0  0  0  0  0  0  0
    7.1040   -1.6801    0.0000 C   0  0  0  0  0  0  0  0  0  0  0  0
    6.1983   -0.1580    0.0000 C   0  0  0  0  0  0  0  0  0  0  0  0
    5.2164   -1.2510    0.0000 C   0  0  0  0  0  0  0  0  0  0  0  0
    8.4327   -1.4753    0.0000 C   0  0  0  0  0  0  0  0  0  0  0  0
    6.8894    1.6801    0.0000 C   0  0  0  0  0  0  0  0  0  0  0  0
    4.3802   -0.3199    0.0000 C   0  0  0  0  0  0  0  0  0  0  0  0
    3.6730    0.3872    0.0000 C   0  0  0  0  0  0  0  0  0  0  0  0
    2.7071    0.1283    0.0000 C   0  0  0  0  0  0  0  0  0  0  0  0
    2.0000    0.8354    0.0000 C   0  0  0  0  0  0  0  0  0  0  0  0
    6.0642   -1.8086    0.0000 H   0  0  0  0  0  0  0  0  0  0  0  0
    8.3362    0.0897    0.0000 H   0  0  0  0  0  0  0  0  0  0  0  0
    7.9376    0.7799    0.0000 H   0  0  0  0  0  0  0  0  0  0  0  0
    6.5194   -1.5685    0.0000 H   0  0  0  0  0  0  0  0  0  0  0  0
    7.2594   -1.5685    0.0000 H   0  0  0  0  0  0  0  0  0  0  0  0
    5.8411    0.7799    0.0000 H   0  0  0  0  0  0  0  0  0  0  0  0
    5.4426    0.0897    0.0000 H   0  0  0  0  0  0  0  0  0  0  0  0
    5.8547    0.3580    0.0000 H   0  0  0  0  0  0  0  0  0  0  0  0
    5.6049   -0.3375    0.0000 H   0  0  0  0  0  0  0  0  0  0  0  0
    6.7946   -2.2174    0.0000 H   0  0  0  0  0  0  0  0  0  0  0  0
    7.6291   -2.0097    0.0000 H   0  0  0  0  0  0  0  0  0  0  0  0
    4.7351   -0.8601    0.0000 H   0  0  0  0  0  0  0  0  0  0  0  0
    5.0232   -1.8401    0.0000 H   0  0  0  0  0  0  0  0  0  0  0  0
    7.5094    1.6801    0.0000 H   0  0  0  0  0  0  0  0  0  0  0  0
    6.8894    2.3001    0.0000 H   0  0  0  0  0  0  0  0  0  0  0  0
    6.2694    1.6801    0.0000 H   0  0  0  0  0  0  0  0  0  0  0  0
    7.9943   -1.9137    0.0000 H   0  0  0  0  0  0  0  0  0  0  0  0
    8.8711   -1.9137    0.0000 H   0  0  0  0  0  0  0  0  0  0  0  0
    8.8711   -1.0369    0.0000 H   0  0  0  0  0  0  0  0  0  0  0  0
    5.5065    0.5378    0.0000 H   0  0  0  0  0  0  0  0  0  0  0  0
    3.8723   -0.6756    0.0000 H   0  0  0  0  0  0  0  0  0  0  0  0
    4.6422   -0.8818    0.0000 H   0  0  0  0  0  0  0  0  0  0  0  0
    4.1809    0.7428    0.0000 H   0  0  0  0  0  0  0  0  0  0  0  0
    3.4110    0.9491    0.0000 H   0  0  0  0  0  0  0  0  0  0  0  0
    2.1992   -0.2273    0.0000 H   0  0  0  0  0  0  0  0  0  0  0  0
    2.9691   -0.4336    0.0000 H   0  0  0  0  0  0  0  0  0  0  0  0
    2.4384    1.2739    0.0000 H   0  0  0  0  0  0  0  0  0  0  0  0
    1.5616    1.2738    0.0000 H   0  0  0  0  0  0  0  0  0  0  0  0
    1.5616    0.3970    0.0000 H   0  0  0  0  0  0  0  0  0  0  0  0
  1  4  1  0  0  0  0
  1 14  1  0  0  0  0
  1 37  1  0  0  0  0
  2  6  1  0  0  0  0
  2  7  1  0  0  0  0
  2 10  1  0  0  0  0
  2 13  1  0  0  0  0
  3  6  1  0  0  0  0
  3  8  1  0  0  0  0
  3  9  1  0  0  0  0
  3 12  1  0  0  0  0
  4  7  1  0  0  0  0
  4  8  1  0  0  0  0
  4 11  1  0  0  0  0
  5  9  1  0  0  0  0
  5 10  1  0  0  0  0
  5 11  1  0  0  0  0
  5 18  1  0  0  0  0
  6 19  1  0  0  0  0
  6 20  1  0  0  0  0
  7 23  1  0  0  0  0
  7 24  1  0  0  0  0
  8 21  1  0  0  0  0
  8 22  1  0  0  0  0
  9 27  1  0  0  0  0
  9 28  1  0  0  0  0
 10 25  1  0  0  0  0
 10 26  1  0  0  0  0
 11 29  1  0  0  0  0
 11 30  1  0  0  0  0
 12 34  1  0  0  0  0
 12 35  1  0  0  0  0
 12 36  1  0  0  0  0
 13 31  1  0  0  0  0
 13 32  1  0  0  0  0
 13 33  1  0  0  0  0
 14 15  1  0  0  0  0
 14 38  1  0  0  0  0
 14 39  1  0  0  0  0
 15 16  1  0  0  0  0
 15 40  1  0  0  0  0
 15 41  1  0  0  0  0
 16 17  1  0  0  0  0
 16 42  1  0  0  0  0
 16 43  1  0  0  0  0
 17 44  1  0  0  0  0
 17 45  1  0  0  0  0
 17 46  1  0  0  0  0
M  END
> <PUBCHEM_COMPOUND_CID>
49949396

> <PUBCHEM_COMPOUND_CANONICALIZED>
1

> <PUBCHEM_CACTVS_COMPLEXITY>
291

> <PUBCHEM_CACTVS_HBOND_ACCEPTOR>
1

> <PUBCHEM_CACTVS_HBOND_DONOR>
1

> <PUBCHEM_CACTVS_ROTATABLE_BOND>
4

> <PUBCHEM_CACTVS_SUBSKEYS>
AAADceB6AAAAAAAAAAAAAAAAAAAAAAAAAAAwYMGAAAAAAAAAAAAAHAAQAAAAD4jBAAQCAALAAAAAAAAAAAAAAAAAAAAAAIAIAAAAAAIAgAAEAAAAEACAAAEQgMAPAAAAAAAAAAAAAASAAAAAAAAAAAAAAA==

> <PUBCHEM_IUPAC_OPENEYE_NAME>
N-butyl-3,5-dimethyl-adamantan-1-amine

> <PUBCHEM_IUPAC_CAS_NAME>
N-butyl-3,5-dimethyl-1-adamantanamine

> <PUBCHEM_IUPAC_NAME>
N-butyl-3,5-dimethyladamantan-1-amine

> <PUBCHEM_IUPAC_SYSTEMATIC_NAME>
N-butyl-3,5-dimethyl-adamantan-1-amine

> <PUBCHEM_IUPAC_TRADITIONAL_NAME>
butyl-(3,5-dimethyl-1-adamantyl)amine

> <PUBCHEM_IUPAC_INCHI>
InChI=1S/C16H29N/c1-4-5-6-17-16-9-13-7-14(2,11-16)10-15(3,8-13)12-16/h13,17H,4-12H2,1-3H3

> <PUBCHEM_IUPAC_INCHIKEY>
JKYIVKDUUHXFIA-UHFFFAOYSA-N

> <PUBCHEM_XLOGP3>
5

> <PUBCHEM_EXACT_MASS>
235.23

> <PUBCHEM_MOLECULAR_FORMULA>
C16H29N

> <PUBCHEM_MOLECULAR_WEIGHT>
235.40816

> <PUBCHEM_OPENEYE_CAN_SMILES>
CCCCNC12CC3CC(C1)(CC(C3)(C2)C)C

> <PUBCHEM_OPENEYE_ISO_SMILES>
CCCCNC12CC3CC(C1)(CC(C3)(C2)C)C

> <PUBCHEM_CACTVS_TPSA>
12

> <PUBCHEM_MONOISOTOPIC_WEIGHT>
235.23

> <PUBCHEM_TOTAL_CHARGE>
0

> <PUBCHEM_HEAVY_ATOM_COUNT>
17

> <PUBCHEM_ATOM_DEF_STEREO_COUNT>
0

> <PUBCHEM_ATOM_UDEF_STEREO_COUNT>
2

> <PUBCHEM_BOND_DEF_STEREO_COUNT>
0

> <PUBCHEM_BOND_UDEF_STEREO_COUNT>
0

> <PUBCHEM_ISOTOPIC_ATOM_COUNT>
0

> <PUBCHEM_COMPONENT_COUNT>
1

> <PUBCHEM_CACTVS_TAUTO_COUNT>
1

> <PUBCHEM_COORDINATE_TYPE>
1
5
255

> <PUBCHEM_BONDANNOTATIONS>
2  13  3
3  12  3

$$$$
