56737083
  -OEChem-11301218112D

 28 30  0     0  0  0  0  0  0999 V2000
    2.0000    1.1690    0.0000 Cl  0  0  0  0  0  0  0  0  0  0  0  0
    5.5443    0.9737    0.0000 N   0  0  0  0  0  0  0  0  0  0  0  0
    5.5443   -0.6357    0.0000 N   0  0  0  0  0  0  0  0  0  0  0  0
    6.1279    0.1690    0.0000 C   0  0  0  0  0  0  0  0  0  0  0  0
    4.5981    0.6690    0.0000 C   0  0  0  0  0  0  0  0  0  0  0  0
    7.1279    0.1690    0.0000 C   0  0  0  0  0  0  0  0  0  0  0  0
    4.5981   -0.3310    0.0000 C   0  0  0  0  0  0  0  0  0  0  0  0
    7.6279   -0.6970    0.0000 C   0  0  0  0  0  0  0  0  0  0  0  0
    8.6279   -0.6970    0.0000 C   0  0  0  0  0  0  0  0  0  0  0  0
    3.7320    1.1690    0.0000 C   0  0  0  0  0  0  0  0  0  0  0  0
    7.6279    1.0350    0.0000 C   0  0  0  0  0  0  0  0  0  0  0  0
    3.7320   -0.8310    0.0000 C   0  0  0  0  0  0  0  0  0  0  0  0
    9.1279    0.1690    0.0000 C   0  0  0  0  0  0  0  0  0  0  0  0
    2.8660    0.6690    0.0000 C   0  0  0  0  0  0  0  0  0  0  0  0
    8.6279    1.0350    0.0000 C   0  0  0  0  0  0  0  0  0  0  0  0
    2.8660   -0.3310    0.0000 C   0  0  0  0  0  0  0  0  0  0  0  0
    9.1279   -1.5630    0.0000 C   0  0  0  0  0  0  0  0  0  0  0  0
    5.7369    1.5630    0.0000 H   0  0  0  0  0  0  0  0  0  0  0  0
    7.3179   -1.2340    0.0000 H   0  0  0  0  0  0  0  0  0  0  0  0
    3.7320    1.7890    0.0000 H   0  0  0  0  0  0  0  0  0  0  0  0
    7.3179    1.5720    0.0000 H   0  0  0  0  0  0  0  0  0  0  0  0
    3.7320   -1.4510    0.0000 H   0  0  0  0  0  0  0  0  0  0  0  0
    9.7479    0.1690    0.0000 H   0  0  0  0  0  0  0  0  0  0  0  0
    8.9379    1.5720    0.0000 H   0  0  0  0  0  0  0  0  0  0  0  0
    2.3291   -0.6410    0.0000 H   0  0  0  0  0  0  0  0  0  0  0  0
    8.5910   -1.8730    0.0000 H   0  0  0  0  0  0  0  0  0  0  0  0
    9.4379   -2.1000    0.0000 H   0  0  0  0  0  0  0  0  0  0  0  0
    9.6648   -1.2530    0.0000 H   0  0  0  0  0  0  0  0  0  0  0  0
  1 14  1  0  0  0  0
  2  4  1  0  0  0  0
  2  5  1  0  0  0  0
  2 18  1  0  0  0  0
  3  4  2  0  0  0  0
  3  7  1  0  0  0  0
  4  6  1  0  0  0  0
  5  7  2  0  0  0  0
  5 10  1  0  0  0  0
  6  8  1  0  0  0  0
  6 11  2  0  0  0  0
  7 12  1  0  0  0  0
  8  9  2  0  0  0  0
  8 19  1  0  0  0  0
  9 13  1  0  0  0  0
  9 17  1  0  0  0  0
 10 14  2  0  0  0  0
 10 20  1  0  0  0  0
 11 15  1  0  0  0  0
 11 21  1  0  0  0  0
 12 16  2  0  0  0  0
 12 22  1  0  0  0  0
 13 15  2  0  0  0  0
 13 23  1  0  0  0  0
 14 16  1  0  0  0  0
 15 24  1  0  0  0  0
 16 25  1  0  0  0  0
 17 26  1  0  0  0  0
 17 27  1  0  0  0  0
 17 28  1  0  0  0  0
M  END
> <PUBCHEM_COMPOUND_CID>
56737083

> <PUBCHEM_COMPOUND_CANONICALIZED>
1

> <PUBCHEM_CACTVS_COMPLEXITY>
271

> <PUBCHEM_CACTVS_HBOND_ACCEPTOR>
1

> <PUBCHEM_CACTVS_HBOND_DONOR>
1

> <PUBCHEM_CACTVS_ROTATABLE_BOND>
1

> <PUBCHEM_CACTVS_SUBSKEYS>
AAADccBzAAAEAAAAAAAAAAAAAAAAAWAAAAAwYAAAAAAAAFgB9AAAHAIQAAAADAqBHyAz0LbJkACgAyZiZACCgC2hF6AJmSAwdpiIaKLBm5GUIAhokALIyCcQgEAOAABCAAIAACAAAIQABAAAQAAAAAAAAA==

> <PUBCHEM_IUPAC_OPENEYE_NAME>
6-chloro-2-(m-tolyl)-1H-benzimidazole

> <PUBCHEM_IUPAC_CAS_NAME>
6-chloro-2-(3-methylphenyl)-1H-benzimidazole

> <PUBCHEM_IUPAC_NAME>
6-chloro-2-(3-methylphenyl)-1H-benzimidazole

> <PUBCHEM_IUPAC_SYSTEMATIC_NAME>
6-chloranyl-2-(3-methylphenyl)-1H-benzimidazole

> <PUBCHEM_IUPAC_TRADITIONAL_NAME>
6-chloro-2-(m-tolyl)-1H-benzimidazole

> <PUBCHEM_IUPAC_INCHI>
InChI=1S/C14H11ClN2/c1-9-3-2-4-10(7-9)14-16-12-6-5-11(15)8-13(12)17-14/h2-8H,1H3,(H,16,17)

> <PUBCHEM_IUPAC_INCHIKEY>
AUJQCVRZIYXDMY-UHFFFAOYSA-N

> <PUBCHEM_XLOGP3>
4.2

> <PUBCHEM_EXACT_MASS>
242.061076

> <PUBCHEM_MOLECULAR_FORMULA>
C14H11ClN2

> <PUBCHEM_MOLECULAR_WEIGHT>
242.70354

> <PUBCHEM_OPENEYE_CAN_SMILES>
CC1=CC=CC(=C1)C2=NC3=C(N2)C=C(C=C3)Cl

> <PUBCHEM_OPENEYE_ISO_SMILES>
CC1=CC=CC(=C1)C2=NC3=C(N2)C=C(C=C3)Cl

> <PUBCHEM_CACTVS_TPSA>
28.7

> <PUBCHEM_MONOISOTOPIC_WEIGHT>
242.061076

> <PUBCHEM_TOTAL_CHARGE>
0

> <PUBCHEM_HEAVY_ATOM_COUNT>
17

> <PUBCHEM_ATOM_DEF_STEREO_COUNT>
0

> <PUBCHEM_ATOM_UDEF_STEREO_COUNT>
0

> <PUBCHEM_BOND_DEF_STEREO_COUNT>
0

> <PUBCHEM_BOND_UDEF_STEREO_COUNT>
0

> <PUBCHEM_ISOTOPIC_ATOM_COUNT>
0

> <PUBCHEM_COMPONENT_COUNT>
1

> <PUBCHEM_CACTVS_TAUTO_COUNT>
2

> <PUBCHEM_COORDINATE_TYPE>
1
5
255

> <PUBCHEM_BONDANNOTATIONS>
10  14  8
11  15  8
12  16  8
13  15  8
14  16  8
2  4  8
2  5  8
3  4  8
3  7  8
5  10  8
5  7  8
6  11  8
6  8  8
7  12  8
8  9  8
9  13  8

$$$$
