27055285
  -OEChem-06201306052D

 36 38  0     0  0  0  0  0  0999 V2000
    8.3987   -1.2499    0.0000 S   0  0  0  0  0  0  0  0  0  0  0  0
    8.0321    0.4429    0.0000 N   0  0  0  0  0  0  0  0  0  0  0  0
    9.6814   -0.0860    0.0000 N   0  0  0  0  0  0  0  0  0  0  0  0
    4.5274    1.3554    0.0000 C   0  0  0  0  0  0  0  0  0  0  0  0
    5.3364    0.7676    0.0000 C   0  0  0  0  0  0  0  0  0  0  0  0
    5.0274   -0.1834    0.0000 C   0  0  0  0  0  0  0  0  0  0  0  0
    3.7183    0.7676    0.0000 C   0  0  0  0  0  0  0  0  0  0  0  0
    4.0274   -0.1834    0.0000 C   0  0  0  0  0  0  0  0  0  0  0  0
    6.3518    0.9999    0.0000 C   0  0  0  0  0  0  0  0  0  0  0  0
    5.7123   -0.9681    0.0000 C   0  0  0  0  0  0  0  0  0  0  0  0
    2.7029    0.9999    0.0000 C   0  0  0  0  0  0  0  0  0  0  0  0
    3.3424   -0.9681    0.0000 C   0  0  0  0  0  0  0  0  0  0  0  0
    7.0547    0.2312    0.0000 C   0  0  0  0  0  0  0  0  0  0  0  0
    6.7328   -0.7594    0.0000 C   0  0  0  0  0  0  0  0  0  0  0  0
    2.0000    0.2312    0.0000 C   0  0  0  0  0  0  0  0  0  0  0  0
    2.3219   -0.7594    0.0000 C   0  0  0  0  0  0  0  0  0  0  0  0
    8.7040   -0.2977    0.0000 C   0  0  0  0  0  0  0  0  0  0  0  0
   10.3534   -0.8266    0.0000 C   0  0  0  0  0  0  0  0  0  0  0  0
   11.3307   -0.6149    0.0000 C   0  0  0  0  0  0  0  0  0  0  0  0
   12.0027   -1.3554    0.0000 C   0  0  0  0  0  0  0  0  0  0  0  0
    4.9422    1.8162    0.0000 H   0  0  0  0  0  0  0  0  0  0  0  0
    4.1125    1.8162    0.0000 H   0  0  0  0  0  0  0  0  0  0  0  0
    6.5365    1.5917    0.0000 H   0  0  0  0  0  0  0  0  0  0  0  0
    5.5139   -1.5556    0.0000 H   0  0  0  0  0  0  0  0  0  0  0  0
    2.5182    1.5917    0.0000 H   0  0  0  0  0  0  0  0  0  0  0  0
    3.5408   -1.5556    0.0000 H   0  0  0  0  0  0  0  0  0  0  0  0
    7.1459   -1.2218    0.0000 H   0  0  0  0  0  0  0  0  0  0  0  0
    1.3940    0.3625    0.0000 H   0  0  0  0  0  0  0  0  0  0  0  0
    1.9088   -1.2218    0.0000 H   0  0  0  0  0  0  0  0  0  0  0  0
    8.2214    1.0333    0.0000 H   0  0  0  0  0  0  0  0  0  0  0  0
    9.8707    0.5044    0.0000 H   0  0  0  0  0  0  0  0  0  0  0  0
    9.8289   -1.1571    0.0000 H   0  0  0  0  0  0  0  0  0  0  0  0
   10.5878   -1.4005    0.0000 H   0  0  0  0  0  0  0  0  0  0  0  0
   11.5200   -0.0245    0.0000 H   0  0  0  0  0  0  0  0  0  0  0  0
   11.8134   -1.9458    0.0000 H   0  0  0  0  0  0  0  0  0  0  0  0
   12.6087   -1.2242    0.0000 H   0  0  0  0  0  0  0  0  0  0  0  0
  1 17  2  0  0  0  0
  2 13  1  0  0  0  0
  2 17  1  0  0  0  0
  2 30  1  0  0  0  0
  3 17  1  0  0  0  0
  3 18  1  0  0  0  0
  3 31  1  0  0  0  0
  4  5  1  0  0  0  0
  4  7  1  0  0  0  0
  4 21  1  0  0  0  0
  4 22  1  0  0  0  0
  5  6  2  0  0  0  0
  5  9  1  0  0  0  0
  6  8  1  0  0  0  0
  6 10  1  0  0  0  0
  7  8  1  0  0  0  0
  7 11  2  0  0  0  0
  8 12  2  0  0  0  0
  9 13  2  0  0  0  0
  9 23  1  0  0  0  0
 10 14  2  0  0  0  0
 10 24  1  0  0  0  0
 11 15  1  0  0  0  0
 11 25  1  0  0  0  0
 12 16  1  0  0  0  0
 12 26  1  0  0  0  0
 13 14  1  0  0  0  0
 14 27  1  0  0  0  0
 15 16  2  0  0  0  0
 15 28  1  0  0  0  0
 16 29  1  0  0  0  0
 18 19  1  0  0  0  0
 18 32  1  0  0  0  0
 18 33  1  0  0  0  0
 19 20  2  0  0  0  0
 19 34  1  0  0  0  0
 20 35  1  0  0  0  0
 20 36  1  0  0  0  0
M  END
> <PUBCHEM_COMPOUND_CID>
27055285

> <PUBCHEM_COMPOUND_CANONICALIZED>
1

> <PUBCHEM_CACTVS_COMPLEXITY>
368

> <PUBCHEM_CACTVS_HBOND_ACCEPTOR>
1

> <PUBCHEM_CACTVS_HBOND_DONOR>
2

> <PUBCHEM_CACTVS_ROTATABLE_BOND>
3

> <PUBCHEM_CACTVS_SUBSKEYS>
AAADceB7AABAAAAAAAAAAAAAAAAAAYAAAAAwYAAAAAAAAGABQAAAHAQQAAAADAjBGAQxwILAAACEAiRCQACCAAAhAgkIiIAIZIiIICLAkZGEIAhokAJIyCcQgMAOiAAAQAAQAAAQAACAACAAAQAACAAAAA==

> <PUBCHEM_IUPAC_OPENEYE_NAME>
1-allyl-3-(9H-fluoren-2-yl)thiourea

> <PUBCHEM_IUPAC_CAS_NAME>
1-(9H-fluoren-2-yl)-3-prop-2-enylthiourea

> <PUBCHEM_IUPAC_NAME>
1-(9H-fluoren-2-yl)-3-prop-2-enylthiourea

> <PUBCHEM_IUPAC_SYSTEMATIC_NAME>
1-(9H-fluoren-2-yl)-3-prop-2-enyl-thiourea

> <PUBCHEM_IUPAC_TRADITIONAL_NAME>
1-allyl-3-(9H-fluoren-2-yl)thiourea

> <PUBCHEM_IUPAC_INCHI>
InChI=1S/C17H16N2S/c1-2-9-18-17(20)19-14-7-8-16-13(11-14)10-12-5-3-4-6-15(12)16/h2-8,11H,1,9-10H2,(H2,18,19,20)

> <PUBCHEM_IUPAC_INCHIKEY>
ALXKDEUXJFQBSV-UHFFFAOYSA-N

> <PUBCHEM_XLOGP3>
4.1

> <PUBCHEM_EXACT_MASS>
280.10342

> <PUBCHEM_MOLECULAR_FORMULA>
C17H16N2S

> <PUBCHEM_MOLECULAR_WEIGHT>
280.38734

> <PUBCHEM_OPENEYE_CAN_SMILES>
C=CCNC(=S)NC1=CC2=C(C=C1)C3=CC=CC=C3C2

> <PUBCHEM_OPENEYE_ISO_SMILES>
C=CCNC(=S)NC1=CC2=C(C=C1)C3=CC=CC=C3C2

> <PUBCHEM_CACTVS_TPSA>
56.2

> <PUBCHEM_MONOISOTOPIC_WEIGHT>
280.10342

> <PUBCHEM_TOTAL_CHARGE>
0

> <PUBCHEM_HEAVY_ATOM_COUNT>
20

> <PUBCHEM_ATOM_DEF_STEREO_COUNT>
0

> <PUBCHEM_ATOM_UDEF_STEREO_COUNT>
0

> <PUBCHEM_BOND_DEF_STEREO_COUNT>
0

> <PUBCHEM_BOND_UDEF_STEREO_COUNT>
0

> <PUBCHEM_ISOTOPIC_ATOM_COUNT>
0

> <PUBCHEM_COMPONENT_COUNT>
1

> <PUBCHEM_CACTVS_TAUTO_COUNT>
3

> <PUBCHEM_COORDINATE_TYPE>
1
5
255

> <PUBCHEM_BONDANNOTATIONS>
10  14  8
11  15  8
12  16  8
13  14  8
15  16  8
5  6  8
5  9  8
6  10  8
7  11  8
7  8  8
8  12  8
9  13  8

$$$$
27055286
  -OEChem-06201306052D

 32 34  0     0  0  0  0  0  0999 V2000
    8.3987   -1.3027    0.0000 S   0  0  0  0  0  0  0  0  0  0  0  0
    8.0321    0.3901    0.0000 N   0  0  0  0  0  0  0  0  0  0  0  0
    9.6814   -0.1388    0.0000 N   0  0  0  0  0  0  0  0  0  0  0  0
    4.5274    1.3027    0.0000 C   0  0  0  0  0  0  0  0  0  0  0  0
    5.3364    0.7149    0.0000 C   0  0  0  0  0  0  0  0  0  0  0  0
    5.0274   -0.2362    0.0000 C   0  0  0  0  0  0  0  0  0  0  0  0
    3.7183    0.7149    0.0000 C   0  0  0  0  0  0  0  0  0  0  0  0
    4.0274   -0.2362    0.0000 C   0  0  0  0  0  0  0  0  0  0  0  0
    6.3518    0.9471    0.0000 C   0  0  0  0  0  0  0  0  0  0  0  0
    5.7123   -1.0209    0.0000 C   0  0  0  0  0  0  0  0  0  0  0  0
    2.7029    0.9471    0.0000 C   0  0  0  0  0  0  0  0  0  0  0  0
    3.3424   -1.0209    0.0000 C   0  0  0  0  0  0  0  0  0  0  0  0
    7.0547    0.1784    0.0000 C   0  0  0  0  0  0  0  0  0  0  0  0
    6.7328   -0.8122    0.0000 C   0  0  0  0  0  0  0  0  0  0  0  0
    2.0000    0.1784    0.0000 C   0  0  0  0  0  0  0  0  0  0  0  0
    2.3219   -0.8122    0.0000 C   0  0  0  0  0  0  0  0  0  0  0  0
    8.7040   -0.3504    0.0000 C   0  0  0  0  0  0  0  0  0  0  0  0
   10.3534   -0.8793    0.0000 C   0  0  0  0  0  0  0  0  0  0  0  0
    4.9422    1.7634    0.0000 H   0  0  0  0  0  0  0  0  0  0  0  0
    4.1125    1.7634    0.0000 H   0  0  0  0  0  0  0  0  0  0  0  0
    6.5365    1.5390    0.0000 H   0  0  0  0  0  0  0  0  0  0  0  0
    5.5139   -1.6083    0.0000 H   0  0  0  0  0  0  0  0  0  0  0  0
    2.5182    1.5390    0.0000 H   0  0  0  0  0  0  0  0  0  0  0  0
    3.5408   -1.6083    0.0000 H   0  0  0  0  0  0  0  0  0  0  0  0
    7.1459   -1.2746    0.0000 H   0  0  0  0  0  0  0  0  0  0  0  0
    1.3940    0.3097    0.0000 H   0  0  0  0  0  0  0  0  0  0  0  0
    1.9088   -1.2746    0.0000 H   0  0  0  0  0  0  0  0  0  0  0  0
    8.2214    0.9805    0.0000 H   0  0  0  0  0  0  0  0  0  0  0  0
    9.8707    0.4516    0.0000 H   0  0  0  0  0  0  0  0  0  0  0  0
    9.8942   -1.2959    0.0000 H   0  0  0  0  0  0  0  0  0  0  0  0
   10.7700   -1.3385    0.0000 H   0  0  0  0  0  0  0  0  0  0  0  0
   10.8125   -0.4627    0.0000 H   0  0  0  0  0  0  0  0  0  0  0  0
  1 17  2  0  0  0  0
  2 13  1  0  0  0  0
  2 17  1  0  0  0  0
  2 28  1  0  0  0  0
  3 17  1  0  0  0  0
  3 18  1  0  0  0  0
  3 29  1  0  0  0  0
  4  5  1  0  0  0  0
  4  7  1  0  0  0  0
  4 19  1  0  0  0  0
  4 20  1  0  0  0  0
  5  6  2  0  0  0  0
  5  9  1  0  0  0  0
  6  8  1  0  0  0  0
  6 10  1  0  0  0  0
  7  8  1  0  0  0  0
  7 11  2  0  0  0  0
  8 12  2  0  0  0  0
  9 13  2  0  0  0  0
  9 21  1  0  0  0  0
 10 14  2  0  0  0  0
 10 22  1  0  0  0  0
 11 15  1  0  0  0  0
 11 23  1  0  0  0  0
 12 16  1  0  0  0  0
 12 24  1  0  0  0  0
 13 14  1  0  0  0  0
 14 25  1  0  0  0  0
 15 16  2  0  0  0  0
 15 26  1  0  0  0  0
 16 27  1  0  0  0  0
 18 30  1  0  0  0  0
 18 31  1  0  0  0  0
 18 32  1  0  0  0  0
M  END
> <PUBCHEM_COMPOUND_CID>
27055286

> <PUBCHEM_COMPOUND_CANONICALIZED>
1

> <PUBCHEM_CACTVS_COMPLEXITY>
318

> <PUBCHEM_CACTVS_HBOND_ACCEPTOR>
1

> <PUBCHEM_CACTVS_HBOND_DONOR>
2

> <PUBCHEM_CACTVS_ROTATABLE_BOND>
1

> <PUBCHEM_CACTVS_SUBSKEYS>
AAADccBzAABAAAAAAAAAAAAAAAAAAYAAAAAwYAAAAAAAAGABQAAAHAQQAAAADAiBGAQzwILAAACEAiRCQACCAAAhAgkIiIAIZIiIICLAkZGEIAhokAJIyCcQgMAOiAAAQAAQAAAQAACAACAAAQAACAAAAA==

> <PUBCHEM_IUPAC_OPENEYE_NAME>
1-(9H-fluoren-2-yl)-3-methyl-thiourea

> <PUBCHEM_IUPAC_CAS_NAME>
1-(9H-fluoren-2-yl)-3-methylthiourea

> <PUBCHEM_IUPAC_NAME>
1-(9H-fluoren-2-yl)-3-methylthiourea

> <PUBCHEM_IUPAC_SYSTEMATIC_NAME>
1-(9H-fluoren-2-yl)-3-methyl-thiourea

> <PUBCHEM_IUPAC_TRADITIONAL_NAME>
1-(9H-fluoren-2-yl)-3-methyl-thiourea

> <PUBCHEM_IUPAC_INCHI>
InChI=1S/C15H14N2S/c1-16-15(18)17-12-6-7-14-11(9-12)8-10-4-2-3-5-13(10)14/h2-7,9H,8H2,1H3,(H2,16,17,18)

> <PUBCHEM_IUPAC_INCHIKEY>
FGZMTWGYXNNJIN-UHFFFAOYSA-N

> <PUBCHEM_XLOGP3>
3.4

> <PUBCHEM_EXACT_MASS>
254.087769

> <PUBCHEM_MOLECULAR_FORMULA>
C15H14N2S

> <PUBCHEM_MOLECULAR_WEIGHT>
254.35006

> <PUBCHEM_OPENEYE_CAN_SMILES>
CNC(=S)NC1=CC2=C(C=C1)C3=CC=CC=C3C2

> <PUBCHEM_OPENEYE_ISO_SMILES>
CNC(=S)NC1=CC2=C(C=C1)C3=CC=CC=C3C2

> <PUBCHEM_CACTVS_TPSA>
56.2

> <PUBCHEM_MONOISOTOPIC_WEIGHT>
254.087769

> <PUBCHEM_TOTAL_CHARGE>
0

> <PUBCHEM_HEAVY_ATOM_COUNT>
18

> <PUBCHEM_ATOM_DEF_STEREO_COUNT>
0

> <PUBCHEM_ATOM_UDEF_STEREO_COUNT>
0

> <PUBCHEM_BOND_DEF_STEREO_COUNT>
0

> <PUBCHEM_BOND_UDEF_STEREO_COUNT>
0

> <PUBCHEM_ISOTOPIC_ATOM_COUNT>
0

> <PUBCHEM_COMPONENT_COUNT>
1

> <PUBCHEM_CACTVS_TAUTO_COUNT>
3

> <PUBCHEM_COORDINATE_TYPE>
1
5
255

> <PUBCHEM_BONDANNOTATIONS>
10  14  8
11  15  8
12  16  8
13  14  8
15  16  8
5  6  8
5  9  8
6  10  8
7  11  8
7  8  8
8  12  8
9  13  8

$$$$
27055287
  -OEChem-06201306052D

 41 43  0     0  0  0  0  0  0999 V2000
    8.3987   -1.2499    0.0000 S   0  0  0  0  0  0  0  0  0  0  0  0
    8.0321    0.4429    0.0000 N   0  0  0  0  0  0  0  0  0  0  0  0
    9.6814   -0.0860    0.0000 N   0  0  0  0  0  0  0  0  0  0  0  0
    4.5274    1.3554    0.0000 C   0  0  0  0  0  0  0  0  0  0  0  0
    5.3364    0.7676    0.0000 C   0  0  0  0  0  0  0  0  0  0  0  0
    5.0274   -0.1834    0.0000 C   0  0  0  0  0  0  0  0  0  0  0  0
    3.7183    0.7676    0.0000 C   0  0  0  0  0  0  0  0  0  0  0  0
    4.0274   -0.1834    0.0000 C   0  0  0  0  0  0  0  0  0  0  0  0
    6.3518    0.9999    0.0000 C   0  0  0  0  0  0  0  0  0  0  0  0
    5.7123   -0.9681    0.0000 C   0  0  0  0  0  0  0  0  0  0  0  0
    7.0547    0.2312    0.0000 C   0  0  0  0  0  0  0  0  0  0  0  0
    2.7029    0.9999    0.0000 C   0  0  0  0  0  0  0  0  0  0  0  0
    3.3424   -0.9681    0.0000 C   0  0  0  0  0  0  0  0  0  0  0  0
    6.7328   -0.7594    0.0000 C   0  0  0  0  0  0  0  0  0  0  0  0
    2.0000    0.2312    0.0000 C   0  0  0  0  0  0  0  0  0  0  0  0
    2.3219   -0.7594    0.0000 C   0  0  0  0  0  0  0  0  0  0  0  0
   11.3307   -0.6149    0.0000 C   0  0  0  0  0  0  0  0  0  0  0  0
   10.3534   -0.8266    0.0000 C   0  0  0  0  0  0  0  0  0  0  0  0
   12.0027   -1.3554    0.0000 C   0  0  0  0  0  0  0  0  0  0  0  0
    8.7040   -0.2977    0.0000 C   0  0  0  0  0  0  0  0  0  0  0  0
   12.9800   -1.1438    0.0000 C   0  0  0  0  0  0  0  0  0  0  0  0
    4.9422    1.8162    0.0000 H   0  0  0  0  0  0  0  0  0  0  0  0
    4.1125    1.8162    0.0000 H   0  0  0  0  0  0  0  0  0  0  0  0
    6.5365    1.5917    0.0000 H   0  0  0  0  0  0  0  0  0  0  0  0
    5.5139   -1.5556    0.0000 H   0  0  0  0  0  0  0  0  0  0  0  0
    2.5182    1.5917    0.0000 H   0  0  0  0  0  0  0  0  0  0  0  0
    3.5408   -1.5556    0.0000 H   0  0  0  0  0  0  0  0  0  0  0  0
    7.1459   -1.2218    0.0000 H   0  0  0  0  0  0  0  0  0  0  0  0
    1.3940    0.3625    0.0000 H   0  0  0  0  0  0  0  0  0  0  0  0
    1.9088   -1.2218    0.0000 H   0  0  0  0  0  0  0  0  0  0  0  0
   11.8552   -0.2843    0.0000 H   0  0  0  0  0  0  0  0  0  0  0  0
   11.0962   -0.0409    0.0000 H   0  0  0  0  0  0  0  0  0  0  0  0
    9.8289   -1.1571    0.0000 H   0  0  0  0  0  0  0  0  0  0  0  0
   10.5878   -1.4005    0.0000 H   0  0  0  0  0  0  0  0  0  0  0  0
    8.2214    1.0333    0.0000 H   0  0  0  0  0  0  0  0  0  0  0  0
   11.4782   -1.6860    0.0000 H   0  0  0  0  0  0  0  0  0  0  0  0
   12.2372   -1.9294    0.0000 H   0  0  0  0  0  0  0  0  0  0  0  0
    9.8707    0.5044    0.0000 H   0  0  0  0  0  0  0  0  0  0  0  0
   13.1113   -1.7497    0.0000 H   0  0  0  0  0  0  0  0  0  0  0  0
   13.5860   -1.0125    0.0000 H   0  0  0  0  0  0  0  0  0  0  0  0
   12.8488   -0.5378    0.0000 H   0  0  0  0  0  0  0  0  0  0  0  0
  1 20  2  0  0  0  0
  2 11  1  0  0  0  0
  2 20  1  0  0  0  0
  2 35  1  0  0  0  0
  3 18  1  0  0  0  0
  3 20  1  0  0  0  0
  3 38  1  0  0  0  0
  4  5  1  0  0  0  0
  4  7  1  0  0  0  0
  4 22  1  0  0  0  0
  4 23  1  0  0  0  0
  5  6  2  0  0  0  0
  5  9  1  0  0  0  0
  6  8  1  0  0  0  0
  6 10  1  0  0  0  0
  7  8  1  0  0  0  0
  7 12  2  0  0  0  0
  8 13  2  0  0  0  0
  9 11  2  0  0  0  0
  9 24  1  0  0  0  0
 10 14  2  0  0  0  0
 10 25  1  0  0  0  0
 11 14  1  0  0  0  0
 12 15  1  0  0  0  0
 12 26  1  0  0  0  0
 13 16  1  0  0  0  0
 13 27  1  0  0  0  0
 14 28  1  0  0  0  0
 15 16  2  0  0  0  0
 15 29  1  0  0  0  0
 16 30  1  0  0  0  0
 17 18  1  0  0  0  0
 17 19  1  0  0  0  0
 17 31  1  0  0  0  0
 17 32  1  0  0  0  0
 18 33  1  0  0  0  0
 18 34  1  0  0  0  0
 19 21  1  0  0  0  0
 19 36  1  0  0  0  0
 19 37  1  0  0  0  0
 21 39  1  0  0  0  0
 21 40  1  0  0  0  0
 21 41  1  0  0  0  0
M  END
> <PUBCHEM_COMPOUND_CID>
27055287

> <PUBCHEM_COMPOUND_CANONICALIZED>
1

> <PUBCHEM_CACTVS_COMPLEXITY>
357

> <PUBCHEM_CACTVS_HBOND_ACCEPTOR>
1

> <PUBCHEM_CACTVS_HBOND_DONOR>
2

> <PUBCHEM_CACTVS_ROTATABLE_BOND>
4

> <PUBCHEM_CACTVS_SUBSKEYS>
AAADceB7AABAAAAAAAAAAAAAAAAAAYAAAAAwYAAAAAAAAGABQAAAHAQQAAAADAjBGAQzwILAAACEAiRCQACCAAAhAgkIiIAIZIiIICLAkZGEIAhokAJIyCcQgMAOiAAAQAAQAAAQAACAACAAAQAACAAAAA==

> <PUBCHEM_IUPAC_OPENEYE_NAME>
1-butyl-3-(9H-fluoren-2-yl)thiourea

> <PUBCHEM_IUPAC_CAS_NAME>
1-butyl-3-(9H-fluoren-2-yl)thiourea

> <PUBCHEM_IUPAC_NAME>
1-butyl-3-(9H-fluoren-2-yl)thiourea

> <PUBCHEM_IUPAC_SYSTEMATIC_NAME>
1-butyl-3-(9H-fluoren-2-yl)thiourea

> <PUBCHEM_IUPAC_TRADITIONAL_NAME>
1-butyl-3-(9H-fluoren-2-yl)thiourea

> <PUBCHEM_IUPAC_INCHI>
InChI=1S/C18H20N2S/c1-2-3-10-19-18(21)20-15-8-9-17-14(12-15)11-13-6-4-5-7-16(13)17/h4-9,12H,2-3,10-11H2,1H3,(H2,19,20,21)

> <PUBCHEM_IUPAC_INCHIKEY>
LHCKHSPXEUONRR-UHFFFAOYSA-N

> <PUBCHEM_XLOGP3>
4.7

> <PUBCHEM_EXACT_MASS>
296.13472

> <PUBCHEM_MOLECULAR_FORMULA>
C18H20N2S

> <PUBCHEM_MOLECULAR_WEIGHT>
296.4298

> <PUBCHEM_OPENEYE_CAN_SMILES>
CCCCNC(=S)NC1=CC2=C(C=C1)C3=CC=CC=C3C2

> <PUBCHEM_OPENEYE_ISO_SMILES>
CCCCNC(=S)NC1=CC2=C(C=C1)C3=CC=CC=C3C2

> <PUBCHEM_CACTVS_TPSA>
56.2

> <PUBCHEM_MONOISOTOPIC_WEIGHT>
296.13472

> <PUBCHEM_TOTAL_CHARGE>
0

> <PUBCHEM_HEAVY_ATOM_COUNT>
21

> <PUBCHEM_ATOM_DEF_STEREO_COUNT>
0

> <PUBCHEM_ATOM_UDEF_STEREO_COUNT>
0

> <PUBCHEM_BOND_DEF_STEREO_COUNT>
0

> <PUBCHEM_BOND_UDEF_STEREO_COUNT>
0

> <PUBCHEM_ISOTOPIC_ATOM_COUNT>
0

> <PUBCHEM_COMPONENT_COUNT>
1

> <PUBCHEM_CACTVS_TAUTO_COUNT>
3

> <PUBCHEM_COORDINATE_TYPE>
1
5
255

> <PUBCHEM_BONDANNOTATIONS>
10  14  8
11  14  8
12  15  8
13  16  8
15  16  8
5  6  8
5  9  8
6  10  8
7  12  8
7  8  8
8  13  8
9  11  8

$$$$
27055290
  -OEChem-06201306052D

 38 40  0     0  0  0  0  0  0999 V2000
    8.3987   -1.0382    0.0000 S   0  0  0  0  0  0  0  0  0  0  0  0
    8.0321    0.6546    0.0000 N   0  0  0  0  0  0  0  0  0  0  0  0
    9.6814    0.1257    0.0000 N   0  0  0  0  0  0  0  0  0  0  0  0
    4.5274    1.5671    0.0000 C   0  0  0  0  0  0  0  0  0  0  0  0
    5.3364    0.9793    0.0000 C   0  0  0  0  0  0  0  0  0  0  0  0
    5.0274    0.0283    0.0000 C   0  0  0  0  0  0  0  0  0  0  0  0
    3.7183    0.9793    0.0000 C   0  0  0  0  0  0  0  0  0  0  0  0
    4.0274    0.0283    0.0000 C   0  0  0  0  0  0  0  0  0  0  0  0
    6.3518    1.2116    0.0000 C   0  0  0  0  0  0  0  0  0  0  0  0
    5.7123   -0.7565    0.0000 C   0  0  0  0  0  0  0  0  0  0  0  0
    7.0547    0.4429    0.0000 C   0  0  0  0  0  0  0  0  0  0  0  0
    2.7029    1.2116    0.0000 C   0  0  0  0  0  0  0  0  0  0  0  0
    3.3424   -0.7565    0.0000 C   0  0  0  0  0  0  0  0  0  0  0  0
    6.7328   -0.5478    0.0000 C   0  0  0  0  0  0  0  0  0  0  0  0
    2.0000    0.4429    0.0000 C   0  0  0  0  0  0  0  0  0  0  0  0
    2.3219   -0.5478    0.0000 C   0  0  0  0  0  0  0  0  0  0  0  0
   10.3534   -0.6149    0.0000 C   0  0  0  0  0  0  0  0  0  0  0  0
    8.7040   -0.0860    0.0000 C   0  0  0  0  0  0  0  0  0  0  0  0
   11.3307   -0.4032    0.0000 C   0  0  0  0  0  0  0  0  0  0  0  0
   10.0480   -1.5671    0.0000 C   0  0  0  0  0  0  0  0  0  0  0  0
    4.9422    2.0279    0.0000 H   0  0  0  0  0  0  0  0  0  0  0  0
    4.1125    2.0279    0.0000 H   0  0  0  0  0  0  0  0  0  0  0  0
    6.5365    1.8034    0.0000 H   0  0  0  0  0  0  0  0  0  0  0  0
    5.5139   -1.3439    0.0000 H   0  0  0  0  0  0  0  0  0  0  0  0
    2.5182    1.8034    0.0000 H   0  0  0  0  0  0  0  0  0  0  0  0
    3.5408   -1.3439    0.0000 H   0  0  0  0  0  0  0  0  0  0  0  0
    7.1459   -1.0101    0.0000 H   0  0  0  0  0  0  0  0  0  0  0  0
    1.3940    0.5741    0.0000 H   0  0  0  0  0  0  0  0  0  0  0  0
    1.9088   -1.0101    0.0000 H   0  0  0  0  0  0  0  0  0  0  0  0
   10.5427   -0.0245    0.0000 H   0  0  0  0  0  0  0  0  0  0  0  0
    8.2214    1.2450    0.0000 H   0  0  0  0  0  0  0  0  0  0  0  0
    9.8707    0.7161    0.0000 H   0  0  0  0  0  0  0  0  0  0  0  0
   11.4620   -1.0091    0.0000 H   0  0  0  0  0  0  0  0  0  0  0  0
    9.4576   -1.3778    0.0000 H   0  0  0  0  0  0  0  0  0  0  0  0
    9.8587   -2.1575    0.0000 H   0  0  0  0  0  0  0  0  0  0  0  0
   10.6384   -1.7564    0.0000 H   0  0  0  0  0  0  0  0  0  0  0  0
   11.9367   -0.2719    0.0000 H   0  0  0  0  0  0  0  0  0  0  0  0
   11.1995    0.2028    0.0000 H   0  0  0  0  0  0  0  0  0  0  0  0
  1 18  2  0  0  0  0
  2 11  1  0  0  0  0
  2 18  1  0  0  0  0
  2 31  1  0  0  0  0
  3 17  1  0  0  0  0
  3 18  1  0  0  0  0
  3 32  1  0  0  0  0
  4  5  1  0  0  0  0
  4  7  1  0  0  0  0
  4 21  1  0  0  0  0
  4 22  1  0  0  0  0
  5  6  2  0  0  0  0
  5  9  1  0  0  0  0
  6  8  1  0  0  0  0
  6 10  1  0  0  0  0
  7  8  1  0  0  0  0
  7 12  2  0  0  0  0
  8 13  2  0  0  0  0
  9 11  2  0  0  0  0
  9 23  1  0  0  0  0
 10 14  2  0  0  0  0
 10 24  1  0  0  0  0
 11 14  1  0  0  0  0
 12 15  1  0  0  0  0
 12 25  1  0  0  0  0
 13 16  1  0  0  0  0
 13 26  1  0  0  0  0
 14 27  1  0  0  0  0
 15 16  2  0  0  0  0
 15 28  1  0  0  0  0
 16 29  1  0  0  0  0
 17 19  1  0  0  0  0
 17 20  1  0  0  0  0
 17 30  1  0  0  0  0
 19 33  1  0  0  0  0
 19 37  1  0  0  0  0
 19 38  1  0  0  0  0
 20 34  1  0  0  0  0
 20 35  1  0  0  0  0
 20 36  1  0  0  0  0
M  END
> <PUBCHEM_COMPOUND_CID>
27055290

> <PUBCHEM_COMPOUND_CANONICALIZED>
1

> <PUBCHEM_CACTVS_COMPLEXITY>
355

> <PUBCHEM_CACTVS_HBOND_ACCEPTOR>
1

> <PUBCHEM_CACTVS_HBOND_DONOR>
2

> <PUBCHEM_CACTVS_ROTATABLE_BOND>
2

> <PUBCHEM_CACTVS_SUBSKEYS>
AAADceB7AABAAAAAAAAAAAAAAAAAAYAAAAAwYAAAAAAAAGABQAAAHAQQAAAADCjBGAQzwILAAACEAiRCQACCAAAhAgkIiIAIZIiIICLAkZGEIAhokAJIyCcQgMAOiAAAQAAQAAAQAACAACAAAQAACAAAAA==

> <PUBCHEM_IUPAC_OPENEYE_NAME>
1-(9H-fluoren-2-yl)-3-isopropyl-thiourea

> <PUBCHEM_IUPAC_CAS_NAME>
1-(9H-fluoren-2-yl)-3-propan-2-ylthiourea

> <PUBCHEM_IUPAC_NAME>
1-(9H-fluoren-2-yl)-3-propan-2-ylthiourea

> <PUBCHEM_IUPAC_SYSTEMATIC_NAME>
1-(9H-fluoren-2-yl)-3-propan-2-yl-thiourea

> <PUBCHEM_IUPAC_TRADITIONAL_NAME>
1-(9H-fluoren-2-yl)-3-isopropyl-thiourea

> <PUBCHEM_IUPAC_INCHI>
InChI=1S/C17H18N2S/c1-11(2)18-17(20)19-14-7-8-16-13(10-14)9-12-5-3-4-6-15(12)16/h3-8,10-11H,9H2,1-2H3,(H2,18,19,20)

> <PUBCHEM_IUPAC_INCHIKEY>
HHPBQOCFWUBILG-UHFFFAOYSA-N

> <PUBCHEM_XLOGP3>
4.2

> <PUBCHEM_EXACT_MASS>
282.11907

> <PUBCHEM_MOLECULAR_FORMULA>
C17H18N2S

> <PUBCHEM_MOLECULAR_WEIGHT>
282.40322

> <PUBCHEM_OPENEYE_CAN_SMILES>
CC(C)NC(=S)NC1=CC2=C(C=C1)C3=CC=CC=C3C2

> <PUBCHEM_OPENEYE_ISO_SMILES>
CC(C)NC(=S)NC1=CC2=C(C=C1)C3=CC=CC=C3C2

> <PUBCHEM_CACTVS_TPSA>
56.2

> <PUBCHEM_MONOISOTOPIC_WEIGHT>
282.11907

> <PUBCHEM_TOTAL_CHARGE>
0

> <PUBCHEM_HEAVY_ATOM_COUNT>
20

> <PUBCHEM_ATOM_DEF_STEREO_COUNT>
0

> <PUBCHEM_ATOM_UDEF_STEREO_COUNT>
0

> <PUBCHEM_BOND_DEF_STEREO_COUNT>
0

> <PUBCHEM_BOND_UDEF_STEREO_COUNT>
0

> <PUBCHEM_ISOTOPIC_ATOM_COUNT>
0

> <PUBCHEM_COMPONENT_COUNT>
1

> <PUBCHEM_CACTVS_TAUTO_COUNT>
3

> <PUBCHEM_COORDINATE_TYPE>
1
5
255

> <PUBCHEM_BONDANNOTATIONS>
10  14  8
11  14  8
12  15  8
13  16  8
15  16  8
5  6  8
5  9  8
6  10  8
7  12  8
7  8  8
8  13  8
9  11  8

$$$$
