49670805
  -OEChem-03061303152D

 36 37  0     0  0  0  0  0  0999 V2000
    2.8660   -0.3512    0.0000 O   0  0  0  0  0  0  0  0  0  0  0  0
    6.3301    2.6488    0.0000 N   0  0  0  0  0  0  0  0  0  0  0  0
    4.5981   -0.3512    0.0000 N   0  0  0  0  0  0  0  0  0  0  0  0
    5.4641    1.1488    0.0000 C   0  0  0  0  0  0  0  0  0  0  0  0
    5.4641    2.1488    0.0000 C   0  0  0  0  0  0  0  0  0  0  0  0
    4.5981    0.6488    0.0000 C   0  0  0  0  0  0  0  0  0  0  0  0
    7.2437    2.2420    0.0000 C   0  0  0  0  0  0  0  0  0  0  0  0
    6.4347    3.6433    0.0000 C   0  0  0  0  0  0  0  0  0  0  0  0
    3.7320   -1.8512    0.0000 C   0  0  0  0  0  0  0  0  0  0  0  0
    3.7320   -0.8512    0.0000 C   0  0  0  0  0  0  0  0  0  0  0  0
    2.8660   -2.3512    0.0000 C   0  0  0  0  0  0  0  0  0  0  0  0
    7.4128    3.8512    0.0000 C   0  0  0  0  0  0  0  0  0  0  0  0
    7.9128    2.9852    0.0000 C   0  0  0  0  0  0  0  0  0  0  0  0
    4.5981   -2.3512    0.0000 C   0  0  0  0  0  0  0  0  0  0  0  0
    2.8660   -3.3512    0.0000 C   0  0  0  0  0  0  0  0  0  0  0  0
    2.0000   -1.8512    0.0000 C   0  0  0  0  0  0  0  0  0  0  0  0
    4.5981   -3.3512    0.0000 C   0  0  0  0  0  0  0  0  0  0  0  0
    3.7320   -3.8512    0.0000 C   0  0  0  0  0  0  0  0  0  0  0  0
    5.6762    0.5662    0.0000 H   0  0  0  0  0  0  0  0  0  0  0  0
    6.0747    1.2564    0.0000 H   0  0  0  0  0  0  0  0  0  0  0  0
    5.2520    2.7314    0.0000 H   0  0  0  0  0  0  0  0  0  0  0  0
    4.8535    2.0411    0.0000 H   0  0  0  0  0  0  0  0  0  0  0  0
    4.3860    1.2314    0.0000 H   0  0  0  0  0  0  0  0  0  0  0  0
    3.9875    0.5411    0.0000 H   0  0  0  0  0  0  0  0  0  0  0  0
    5.1350   -0.6612    0.0000 H   0  0  0  0  0  0  0  0  0  0  0  0
    7.3726    1.6356    0.0000 H   0  0  0  0  0  0  0  0  0  0  0  0
    5.9739    4.0582    0.0000 H   0  0  0  0  0  0  0  0  0  0  0  0
    7.6650    4.4176    0.0000 H   0  0  0  0  0  0  0  0  0  0  0  0
    8.5294    2.9204    0.0000 H   0  0  0  0  0  0  0  0  0  0  0  0
    5.1350   -2.0412    0.0000 H   0  0  0  0  0  0  0  0  0  0  0  0
    2.3291   -3.6612    0.0000 H   0  0  0  0  0  0  0  0  0  0  0  0
    2.3100   -1.3143    0.0000 H   0  0  0  0  0  0  0  0  0  0  0  0
    1.4631   -1.5412    0.0000 H   0  0  0  0  0  0  0  0  0  0  0  0
    1.6900   -2.3882    0.0000 H   0  0  0  0  0  0  0  0  0  0  0  0
    5.1350   -3.6612    0.0000 H   0  0  0  0  0  0  0  0  0  0  0  0
    3.7320   -4.4712    0.0000 H   0  0  0  0  0  0  0  0  0  0  0  0
  1 10  2  0  0  0  0
  2  5  1  0  0  0  0
  2  7  1  0  0  0  0
  2  8  1  0  0  0  0
  3  6  1  0  0  0  0
  3 10  1  0  0  0  0
  3 25  1  0  0  0  0
  4  5  1  0  0  0  0
  4  6  1  0  0  0  0
  4 19  1  0  0  0  0
  4 20  1  0  0  0  0
  5 21  1  0  0  0  0
  5 22  1  0  0  0  0
  6 23  1  0  0  0  0
  6 24  1  0  0  0  0
  7 13  2  0  0  0  0
  7 26  1  0  0  0  0
  8 12  2  0  0  0  0
  8 27  1  0  0  0  0
  9 10  1  0  0  0  0
  9 11  1  0  0  0  0
  9 14  2  0  0  0  0
 11 15  2  0  0  0  0
 11 16  1  0  0  0  0
 12 13  1  0  0  0  0
 12 28  1  0  0  0  0
 13 29  1  0  0  0  0
 14 17  1  0  0  0  0
 14 30  1  0  0  0  0
 15 18  1  0  0  0  0
 15 31  1  0  0  0  0
 16 32  1  0  0  0  0
 16 33  1  0  0  0  0
 16 34  1  0  0  0  0
 17 18  2  0  0  0  0
 17 35  1  0  0  0  0
 18 36  1  0  0  0  0
M  END
> <PUBCHEM_COMPOUND_CID>
49670805

> <PUBCHEM_COMPOUND_CANONICALIZED>
1

> <PUBCHEM_CACTVS_COMPLEXITY>
261

> <PUBCHEM_CACTVS_HBOND_ACCEPTOR>
1

> <PUBCHEM_CACTVS_HBOND_DONOR>
1

> <PUBCHEM_CACTVS_ROTATABLE_BOND>
5

> <PUBCHEM_CACTVS_SUBSKEYS>
AAADceBzIAAAAAAAAAAAAAAAAAAAAWAAAAAwAAAAAAAAAAABwAAAHgAQAAAADADBmgQ+gJPMEACoAjF3VACCgCA1AiAI2KE4ZNgIIPLA1ZGEIQhglgDIyYcYiICOgAAAAAAQAAAAAAAAACAAAAAAAAAAAA==

> <PUBCHEM_IUPAC_OPENEYE_NAME>
2-methyl-N-(3-pyrrol-1-ylpropyl)benzamide

> <PUBCHEM_IUPAC_CAS_NAME>
2-methyl-N-[3-(1-pyrrolyl)propyl]benzamide

> <PUBCHEM_IUPAC_NAME>
2-methyl-N-(3-pyrrol-1-ylpropyl)benzamide

> <PUBCHEM_IUPAC_SYSTEMATIC_NAME>
2-methyl-N-(3-pyrrol-1-ylpropyl)benzamide

> <PUBCHEM_IUPAC_TRADITIONAL_NAME>
2-methyl-N-(3-pyrrol-1-ylpropyl)benzamide

> <PUBCHEM_IUPAC_INCHI>
InChI=1S/C15H18N2O/c1-13-7-2-3-8-14(13)15(18)16-9-6-12-17-10-4-5-11-17/h2-5,7-8,10-11H,6,9,12H2,1H3,(H,16,18)

> <PUBCHEM_IUPAC_INCHIKEY>
LTCLHXUTYKQHKQ-UHFFFAOYSA-N

> <PUBCHEM_XLOGP3>
1.7

> <PUBCHEM_EXACT_MASS>
242.141913

> <PUBCHEM_MOLECULAR_FORMULA>
C15H18N2O

> <PUBCHEM_MOLECULAR_WEIGHT>
242.31622

> <PUBCHEM_OPENEYE_CAN_SMILES>
CC1=CC=CC=C1C(=O)NCCCN2C=CC=C2

> <PUBCHEM_OPENEYE_ISO_SMILES>
CC1=CC=CC=C1C(=O)NCCCN2C=CC=C2

> <PUBCHEM_CACTVS_TPSA>
34

> <PUBCHEM_MONOISOTOPIC_WEIGHT>
242.141913

> <PUBCHEM_TOTAL_CHARGE>
0

> <PUBCHEM_HEAVY_ATOM_COUNT>
18

> <PUBCHEM_ATOM_DEF_STEREO_COUNT>
0

> <PUBCHEM_ATOM_UDEF_STEREO_COUNT>
0

> <PUBCHEM_BOND_DEF_STEREO_COUNT>
0

> <PUBCHEM_BOND_UDEF_STEREO_COUNT>
0

> <PUBCHEM_ISOTOPIC_ATOM_COUNT>
0

> <PUBCHEM_COMPONENT_COUNT>
1

> <PUBCHEM_CACTVS_TAUTO_COUNT>
2

> <PUBCHEM_COORDINATE_TYPE>
1
5
255

> <PUBCHEM_BONDANNOTATIONS>
11  15  8
12  13  8
14  17  8
15  18  8
17  18  8
2  7  8
2  8  8
7  13  8
8  12  8
9  11  8
9  14  8

$$$$
