24100584
  -OEChem-11301217342D

 39 41  0     1  0  0  0  0  0999 V2000
    6.0986    1.6651    0.0000 O   0  0  0  0  0  0  0  0  0  0  0  0
    6.0986   -0.0670    0.0000 N   0  0  0  0  0  0  0  0  0  0  0  0
    3.7320    1.2990    0.0000 C   0  0  3  0  0  0  0  0  0  0  0  0
    3.7320    0.2990    0.0000 C   0  0  3  0  0  0  0  0  0  0  0  0
    4.5986    0.7990    0.0000 C   0  0  0  0  0  0  0  0  0  0  0  0
    2.8660    1.7990    0.0000 C   0  0  0  0  0  0  0  0  0  0  0  0
    2.8660   -0.2010    0.0000 C   0  0  0  0  0  0  0  0  0  0  0  0
    2.0000    1.2990    0.0000 C   0  0  0  0  0  0  0  0  0  0  0  0
    2.0000    0.2990    0.0000 C   0  0  0  0  0  0  0  0  0  0  0  0
    5.5986    0.7990    0.0000 C   0  0  0  0  0  0  0  0  0  0  0  0
    7.0986   -0.0670    0.0000 C   0  0  0  0  0  0  0  0  0  0  0  0
    7.5986   -0.9330    0.0000 C   0  0  0  0  0  0  0  0  0  0  0  0
    7.5986    0.7990    0.0000 C   0  0  0  0  0  0  0  0  0  0  0  0
    8.5986   -0.9330    0.0000 C   0  0  0  0  0  0  0  0  0  0  0  0
    8.5986    0.7990    0.0000 C   0  0  0  0  0  0  0  0  0  0  0  0
    9.0986   -0.0670    0.0000 C   0  0  0  0  0  0  0  0  0  0  0  0
    9.0986   -1.7990    0.0000 C   0  0  0  0  0  0  0  0  0  0  0  0
   10.0986   -0.0670    0.0000 C   0  0  0  0  0  0  0  0  0  0  0  0
    4.0420    1.8360    0.0000 H   0  0  0  0  0  0  0  0  0  0  0  0
    4.0420   -0.2379    0.0000 H   0  0  0  0  0  0  0  0  0  0  0  0
    4.7590    1.3979    0.0000 H   0  0  0  0  0  0  0  0  0  0  0  0
    3.2646    2.2740    0.0000 H   0  0  0  0  0  0  0  0  0  0  0  0
    2.4675    2.2740    0.0000 H   0  0  0  0  0  0  0  0  0  0  0  0
    2.4675   -0.6759    0.0000 H   0  0  0  0  0  0  0  0  0  0  0  0
    3.2646   -0.6759    0.0000 H   0  0  0  0  0  0  0  0  0  0  0  0
    1.7880    1.8816    0.0000 H   0  0  0  0  0  0  0  0  0  0  0  0
    1.3894    1.1914    0.0000 H   0  0  0  0  0  0  0  0  0  0  0  0
    1.3894    0.4067    0.0000 H   0  0  0  0  0  0  0  0  0  0  0  0
    1.7880   -0.2836    0.0000 H   0  0  0  0  0  0  0  0  0  0  0  0
    5.7886   -0.6039    0.0000 H   0  0  0  0  0  0  0  0  0  0  0  0
    7.2886   -1.4700    0.0000 H   0  0  0  0  0  0  0  0  0  0  0  0
    7.2886    1.3360    0.0000 H   0  0  0  0  0  0  0  0  0  0  0  0
    8.9086    1.3360    0.0000 H   0  0  0  0  0  0  0  0  0  0  0  0
    8.5616   -2.1090    0.0000 H   0  0  0  0  0  0  0  0  0  0  0  0
    9.4086   -2.3360    0.0000 H   0  0  0  0  0  0  0  0  0  0  0  0
    9.6355   -1.4890    0.0000 H   0  0  0  0  0  0  0  0  0  0  0  0
   10.0986   -0.6870    0.0000 H   0  0  0  0  0  0  0  0  0  0  0  0
   10.7186   -0.0670    0.0000 H   0  0  0  0  0  0  0  0  0  0  0  0
   10.0986    0.5530    0.0000 H   0  0  0  0  0  0  0  0  0  0  0  0
  1 10  2  0  0  0  0
  2 10  1  0  0  0  0
  2 11  1  0  0  0  0
  2 30  1  0  0  0  0
  3  4  1  0  0  0  0
  3  5  1  0  0  0  0
  3  6  1  0  0  0  0
  3 19  1  0  0  0  0
  4  5  1  0  0  0  0
  4  7  1  0  0  0  0
  4 20  1  0  0  0  0
  5 10  1  0  0  0  0
  5 21  1  0  0  0  0
  6  8  1  0  0  0  0
  6 22  1  0  0  0  0
  6 23  1  0  0  0  0
  7  9  1  0  0  0  0
  7 24  1  0  0  0  0
  7 25  1  0  0  0  0
  8  9  1  0  0  0  0
  8 26  1  0  0  0  0
  8 27  1  0  0  0  0
  9 28  1  0  0  0  0
  9 29  1  0  0  0  0
 11 12  2  0  0  0  0
 11 13  1  0  0  0  0
 12 14  1  0  0  0  0
 12 31  1  0  0  0  0
 13 15  2  0  0  0  0
 13 32  1  0  0  0  0
 14 16  2  0  0  0  0
 14 17  1  0  0  0  0
 15 16  1  0  0  0  0
 15 33  1  0  0  0  0
 16 18  1  0  0  0  0
 17 34  1  0  0  0  0
 17 35  1  0  0  0  0
 17 36  1  0  0  0  0
 18 37  1  0  0  0  0
 18 38  1  0  0  0  0
 18 39  1  0  0  0  0
M  END
> <PUBCHEM_COMPOUND_CID>
24100584

> <PUBCHEM_COMPOUND_CANONICALIZED>
1

> <PUBCHEM_CACTVS_COMPLEXITY>
315

> <PUBCHEM_CACTVS_HBOND_ACCEPTOR>
1

> <PUBCHEM_CACTVS_HBOND_DONOR>
1

> <PUBCHEM_CACTVS_ROTATABLE_BOND>
2

> <PUBCHEM_CACTVS_SUBSKEYS>
AAADceB6IAAAAAAAAAAAAAAAGAAAAAAAAAAwYAAABgAAAAABAAAAHgAQAAAADQiBmAAywILAAACIAiVSUACCAAAhAgAIiAEAZIgIIDLAkZGEIAhglADIyAcYiMCOiAAAQAAQAAAQAACAACAAAAAAAAAAAA==

> <PUBCHEM_IUPAC_OPENEYE_NAME>
N-(3,4-dimethylphenyl)norcarane-7-carboxamide

> <PUBCHEM_IUPAC_CAS_NAME>
N-(3,4-dimethylphenyl)-7-bicyclo[4.1.0]heptanecarboxamide

> <PUBCHEM_IUPAC_NAME>
N-(3,4-dimethylphenyl)bicyclo[4.1.0]heptane-7-carboxamide

> <PUBCHEM_IUPAC_SYSTEMATIC_NAME>
N-(3,4-dimethylphenyl)bicyclo[4.1.0]heptane-7-carboxamide

> <PUBCHEM_IUPAC_TRADITIONAL_NAME>
N-(3,4-dimethylphenyl)norcarane-7-carboxamide

> <PUBCHEM_IUPAC_INCHI>
InChI=1S/C16H21NO/c1-10-7-8-12(9-11(10)2)17-16(18)15-13-5-3-4-6-14(13)15/h7-9,13-15H,3-6H2,1-2H3,(H,17,18)

> <PUBCHEM_IUPAC_INCHIKEY>
XWNRRQLMVZNGGR-UHFFFAOYSA-N

> <PUBCHEM_XLOGP3>
4.3

> <PUBCHEM_EXACT_MASS>
243.162314

> <PUBCHEM_MOLECULAR_FORMULA>
C16H21NO

> <PUBCHEM_MOLECULAR_WEIGHT>
243.34404

> <PUBCHEM_OPENEYE_CAN_SMILES>
CC1=C(C=C(C=C1)NC(=O)C2C3C2CCCC3)C

> <PUBCHEM_OPENEYE_ISO_SMILES>
CC1=C(C=C(C=C1)NC(=O)C2C3C2CCCC3)C

> <PUBCHEM_CACTVS_TPSA>
29.1

> <PUBCHEM_MONOISOTOPIC_WEIGHT>
243.162314

> <PUBCHEM_TOTAL_CHARGE>
0

> <PUBCHEM_HEAVY_ATOM_COUNT>
18

> <PUBCHEM_ATOM_DEF_STEREO_COUNT>
0

> <PUBCHEM_ATOM_UDEF_STEREO_COUNT>
2

> <PUBCHEM_BOND_DEF_STEREO_COUNT>
0

> <PUBCHEM_BOND_UDEF_STEREO_COUNT>
0

> <PUBCHEM_ISOTOPIC_ATOM_COUNT>
0

> <PUBCHEM_COMPONENT_COUNT>
1

> <PUBCHEM_CACTVS_TAUTO_COUNT>
3

> <PUBCHEM_COORDINATE_TYPE>
1
5
255

> <PUBCHEM_BONDANNOTATIONS>
11  12  8
11  13  8
12  14  8
13  15  8
14  16  8
15  16  8
3  6  3
4  7  3

$$$$
24106970
  -OEChem-11301217352D

 40 41  0     0  0  0  0  0  0999 V2000
    8.6906   -2.7268    0.0000 Br  0  0  0  0  0  0  0  0  0  0  0  0
    5.1906   -0.1287    0.0000 O   0  0  0  0  0  0  0  0  0  0  0  0
    5.1906    1.6033    0.0000 N   0  0  0  0  0  0  0  0  0  0  0  0
    6.6906    0.7373    0.0000 N   0  0  0  0  0  0  0  0  0  0  0  0
    4.1906    1.6033    0.0000 C   0  0  0  0  0  0  0  0  0  0  0  0
    3.7568    0.7024    0.0000 C   0  0  0  0  0  0  0  0  0  0  0  0
    3.7568    2.5043    0.0000 C   0  0  0  0  0  0  0  0  0  0  0  0
    2.7818    0.4798    0.0000 C   0  0  0  0  0  0  0  0  0  0  0  0
    2.7818    2.7268    0.0000 C   0  0  0  0  0  0  0  0  0  0  0  0
    2.0000    1.1033    0.0000 C   0  0  0  0  0  0  0  0  0  0  0  0
    2.0000    2.1033    0.0000 C   0  0  0  0  0  0  0  0  0  0  0  0
    5.6906    0.7373    0.0000 C   0  0  0  0  0  0  0  0  0  0  0  0
    7.1906   -0.1287    0.0000 C   0  0  0  0  0  0  0  0  0  0  0  0
    6.6906   -0.9948    0.0000 C   0  0  0  0  0  0  0  0  0  0  0  0
    8.1906   -0.1287    0.0000 C   0  0  0  0  0  0  0  0  0  0  0  0
    7.1906   -1.8608    0.0000 C   0  0  0  0  0  0  0  0  0  0  0  0
    5.6906   -0.9948    0.0000 C   0  0  0  0  0  0  0  0  0  0  0  0
    8.6906   -0.9948    0.0000 C   0  0  0  0  0  0  0  0  0  0  0  0
    8.1906   -1.8608    0.0000 C   0  0  0  0  0  0  0  0  0  0  0  0
    4.5205    1.0784    0.0000 H   0  0  0  0  0  0  0  0  0  0  0  0
    4.3612    2.6423    0.0000 H   0  0  0  0  0  0  0  0  0  0  0  0
    3.7568    3.1243    0.0000 H   0  0  0  0  0  0  0  0  0  0  0  0
    3.7568    0.0823    0.0000 H   0  0  0  0  0  0  0  0  0  0  0  0
    4.3612    0.5644    0.0000 H   0  0  0  0  0  0  0  0  0  0  0  0
    3.0508    3.2854    0.0000 H   0  0  0  0  0  0  0  0  0  0  0  0
    2.2971    3.1134    0.0000 H   0  0  0  0  0  0  0  0  0  0  0  0
    2.2971    0.0933    0.0000 H   0  0  0  0  0  0  0  0  0  0  0  0
    3.0508   -0.0788    0.0000 H   0  0  0  0  0  0  0  0  0  0  0  0
    1.7310    2.6619    0.0000 H   0  0  0  0  0  0  0  0  0  0  0  0
    1.3955    1.9654    0.0000 H   0  0  0  0  0  0  0  0  0  0  0  0
    1.3955    1.2413    0.0000 H   0  0  0  0  0  0  0  0  0  0  0  0
    1.7310    0.5447    0.0000 H   0  0  0  0  0  0  0  0  0  0  0  0
    5.5006    2.1402    0.0000 H   0  0  0  0  0  0  0  0  0  0  0  0
    7.0006    1.2742    0.0000 H   0  0  0  0  0  0  0  0  0  0  0  0
    8.5006    0.4082    0.0000 H   0  0  0  0  0  0  0  0  0  0  0  0
    6.8806   -2.3977    0.0000 H   0  0  0  0  0  0  0  0  0  0  0  0
    5.6906   -0.3748    0.0000 H   0  0  0  0  0  0  0  0  0  0  0  0
    5.0706   -0.9948    0.0000 H   0  0  0  0  0  0  0  0  0  0  0  0
    5.6906   -1.6148    0.0000 H   0  0  0  0  0  0  0  0  0  0  0  0
    9.3106   -0.9948    0.0000 H   0  0  0  0  0  0  0  0  0  0  0  0
  1 19  1  0  0  0  0
  2 12  2  0  0  0  0
  3  5  1  0  0  0  0
  3 12  1  0  0  0  0
  3 33  1  0  0  0  0
  4 12  1  0  0  0  0
  4 13  1  0  0  0  0
  4 34  1  0  0  0  0
  5  6  1  0  0  0  0
  5  7  1  0  0  0  0
  5 20  1  0  0  0  0
  6  8  1  0  0  0  0
  6 23  1  0  0  0  0
  6 24  1  0  0  0  0
  7  9  1  0  0  0  0
  7 21  1  0  0  0  0
  7 22  1  0  0  0  0
  8 10  1  0  0  0  0
  8 27  1  0  0  0  0
  8 28  1  0  0  0  0
  9 11  1  0  0  0  0
  9 25  1  0  0  0  0
  9 26  1  0  0  0  0
 10 11  1  0  0  0  0
 10 31  1  0  0  0  0
 10 32  1  0  0  0  0
 11 29  1  0  0  0  0
 11 30  1  0  0  0  0
 13 14  2  0  0  0  0
 13 15  1  0  0  0  0
 14 16  1  0  0  0  0
 14 17  1  0  0  0  0
 15 18  2  0  0  0  0
 15 35  1  0  0  0  0
 16 19  2  0  0  0  0
 16 36  1  0  0  0  0
 17 37  1  0  0  0  0
 17 38  1  0  0  0  0
 17 39  1  0  0  0  0
 18 19  1  0  0  0  0
 18 40  1  0  0  0  0
M  END
> <PUBCHEM_COMPOUND_CID>
24106970

> <PUBCHEM_COMPOUND_CANONICALIZED>
1

> <PUBCHEM_CACTVS_COMPLEXITY>
290

> <PUBCHEM_CACTVS_HBOND_ACCEPTOR>
1

> <PUBCHEM_CACTVS_HBOND_DONOR>
2

> <PUBCHEM_CACTVS_ROTATABLE_BOND>
2

> <PUBCHEM_CACTVS_SUBSKEYS>
AAADceBzIAAAEAAAAAAAAAAAAAAAAAAAAAAwAAAABgAAAAABAAAAHgBQAAABrCjBGAQzwILAAACIAiRCUACCAAAhAgQIiIAIZKiIICLAkZGEIAholgJIyjcQgAAOAAAgEAACAAAAAEAgAAQAAAAAAAAAAA==

> <PUBCHEM_IUPAC_OPENEYE_NAME>
1-(4-bromo-2-methyl-phenyl)-3-cycloheptyl-urea

> <PUBCHEM_IUPAC_CAS_NAME>
1-(4-bromo-2-methylphenyl)-3-cycloheptylurea

> <PUBCHEM_IUPAC_NAME>
1-(4-bromo-2-methylphenyl)-3-cycloheptylurea

> <PUBCHEM_IUPAC_SYSTEMATIC_NAME>
1-(4-bromanyl-2-methyl-phenyl)-3-cycloheptyl-urea

> <PUBCHEM_IUPAC_TRADITIONAL_NAME>
1-(4-bromo-2-methyl-phenyl)-3-cycloheptyl-urea

> <PUBCHEM_IUPAC_INCHI>
InChI=1S/C15H21BrN2O/c1-11-10-12(16)8-9-14(11)18-15(19)17-13-6-4-2-3-5-7-13/h8-10,13H,2-7H2,1H3,(H2,17,18,19)

> <PUBCHEM_IUPAC_INCHIKEY>
NHDVFLVBSRSCLG-UHFFFAOYSA-N

> <PUBCHEM_XLOGP3>
4.2

> <PUBCHEM_EXACT_MASS>
324.083725

> <PUBCHEM_MOLECULAR_FORMULA>
C15H21BrN2O

> <PUBCHEM_MOLECULAR_WEIGHT>
325.24404

> <PUBCHEM_OPENEYE_CAN_SMILES>
CC1=C(C=CC(=C1)Br)NC(=O)NC2CCCCCC2

> <PUBCHEM_OPENEYE_ISO_SMILES>
CC1=C(C=CC(=C1)Br)NC(=O)NC2CCCCCC2

> <PUBCHEM_CACTVS_TPSA>
41.1

> <PUBCHEM_MONOISOTOPIC_WEIGHT>
324.083725

> <PUBCHEM_TOTAL_CHARGE>
0

> <PUBCHEM_HEAVY_ATOM_COUNT>
19

> <PUBCHEM_ATOM_DEF_STEREO_COUNT>
0

> <PUBCHEM_ATOM_UDEF_STEREO_COUNT>
0

> <PUBCHEM_BOND_DEF_STEREO_COUNT>
0

> <PUBCHEM_BOND_UDEF_STEREO_COUNT>
0

> <PUBCHEM_ISOTOPIC_ATOM_COUNT>
0

> <PUBCHEM_COMPONENT_COUNT>
1

> <PUBCHEM_CACTVS_TAUTO_COUNT>
3

> <PUBCHEM_COORDINATE_TYPE>
1
5
255

> <PUBCHEM_BONDANNOTATIONS>
13  14  8
13  15  8
14  16  8
15  18  8
16  19  8
18  19  8

$$$$
24124326
  -OEChem-11301217362D

 43 44  0     0  0  0  0  0  0999 V2000
    5.4641   -2.2500    0.0000 Cl  0  0  0  0  0  0  0  0  0  0  0  0
    5.4641   -1.2500    0.0000 O   0  0  0  0  0  0  0  0  0  0  0  0
    4.5981    0.2500    0.0000 N   0  0  0  0  0  0  0  0  0  0  0  0
    3.7320   -1.2500    0.0000 N   0  0  0  0  0  0  0  0  0  0  0  0
    5.4641    0.7500    0.0000 C   0  0  0  0  0  0  0  0  0  0  0  0
    6.3301    1.2500    0.0000 C   0  0  0  0  0  0  0  0  0  0  0  0
    4.9641    1.6160    0.0000 C   0  0  0  0  0  0  0  0  0  0  0  0
    5.9641   -0.1160    0.0000 C   0  0  0  0  0  0  0  0  0  0  0  0
    6.3301    2.2500    0.0000 C   0  0  0  0  0  0  0  0  0  0  0  0
    4.5981   -0.7500    0.0000 C   0  0  0  0  0  0  0  0  0  0  0  0
    7.1962    2.7500    0.0000 C   0  0  0  0  0  0  0  0  0  0  0  0
    5.4641    2.7500    0.0000 C   0  0  0  0  0  0  0  0  0  0  0  0
    3.7320   -2.2500    0.0000 C   0  0  0  0  0  0  0  0  0  0  0  0
    7.1962    3.7500    0.0000 C   0  0  0  0  0  0  0  0  0  0  0  0
    5.4641    3.7500    0.0000 C   0  0  0  0  0  0  0  0  0  0  0  0
    6.3301    4.2500    0.0000 C   0  0  0  0  0  0  0  0  0  0  0  0
    2.8660   -2.7500    0.0000 C   0  0  0  0  0  0  0  0  0  0  0  0
    4.5981   -2.7500    0.0000 C   0  0  0  0  0  0  0  0  0  0  0  0
    2.8660   -3.7500    0.0000 C   0  0  0  0  0  0  0  0  0  0  0  0
    2.0000   -2.2500    0.0000 C   0  0  0  0  0  0  0  0  0  0  0  0
    4.5981   -3.7500    0.0000 C   0  0  0  0  0  0  0  0  0  0  0  0
    3.7320   -4.2500    0.0000 C   0  0  0  0  0  0  0  0  0  0  0  0
    6.5422    0.6674    0.0000 H   0  0  0  0  0  0  0  0  0  0  0  0
    6.9407    1.3577    0.0000 H   0  0  0  0  0  0  0  0  0  0  0  0
    5.5010    1.9260    0.0000 H   0  0  0  0  0  0  0  0  0  0  0  0
    4.6541    2.1530    0.0000 H   0  0  0  0  0  0  0  0  0  0  0  0
    4.4272    1.3060    0.0000 H   0  0  0  0  0  0  0  0  0  0  0  0
    5.4272   -0.4260    0.0000 H   0  0  0  0  0  0  0  0  0  0  0  0
    6.2741   -0.6530    0.0000 H   0  0  0  0  0  0  0  0  0  0  0  0
    6.5010    0.1940    0.0000 H   0  0  0  0  0  0  0  0  0  0  0  0
    4.0611    0.5600    0.0000 H   0  0  0  0  0  0  0  0  0  0  0  0
    7.7331    2.4400    0.0000 H   0  0  0  0  0  0  0  0  0  0  0  0
    4.9272    2.4400    0.0000 H   0  0  0  0  0  0  0  0  0  0  0  0
    3.1951   -0.9400    0.0000 H   0  0  0  0  0  0  0  0  0  0  0  0
    7.7331    4.0600    0.0000 H   0  0  0  0  0  0  0  0  0  0  0  0
    4.9272    4.0600    0.0000 H   0  0  0  0  0  0  0  0  0  0  0  0
    6.3301    4.8700    0.0000 H   0  0  0  0  0  0  0  0  0  0  0  0
    2.3291   -4.0600    0.0000 H   0  0  0  0  0  0  0  0  0  0  0  0
    2.3100   -1.7131    0.0000 H   0  0  0  0  0  0  0  0  0  0  0  0
    1.4631   -1.9400    0.0000 H   0  0  0  0  0  0  0  0  0  0  0  0
    1.6900   -2.7869    0.0000 H   0  0  0  0  0  0  0  0  0  0  0  0
    5.1350   -4.0600    0.0000 H   0  0  0  0  0  0  0  0  0  0  0  0
    3.7320   -4.8700    0.0000 H   0  0  0  0  0  0  0  0  0  0  0  0
  1 18  1  0  0  0  0
  2 10  2  0  0  0  0
  3  5  1  0  0  0  0
  3 10  1  0  0  0  0
  3 31  1  0  0  0  0
  4 10  1  0  0  0  0
  4 13  1  0  0  0  0
  4 34  1  0  0  0  0
  5  6  1  0  0  0  0
  5  7  1  0  0  0  0
  5  8  1  0  0  0  0
  6  9  1  0  0  0  0
  6 23  1  0  0  0  0
  6 24  1  0  0  0  0
  7 25  1  0  0  0  0
  7 26  1  0  0  0  0
  7 27  1  0  0  0  0
  8 28  1  0  0  0  0
  8 29  1  0  0  0  0
  8 30  1  0  0  0  0
  9 11  2  0  0  0  0
  9 12  1  0  0  0  0
 11 14  1  0  0  0  0
 11 32  1  0  0  0  0
 12 15  2  0  0  0  0
 12 33  1  0  0  0  0
 13 17  2  0  0  0  0
 13 18  1  0  0  0  0
 14 16  2  0  0  0  0
 14 35  1  0  0  0  0
 15 16  1  0  0  0  0
 15 36  1  0  0  0  0
 16 37  1  0  0  0  0
 17 19  1  0  0  0  0
 17 20  1  0  0  0  0
 18 21  2  0  0  0  0
 19 22  2  0  0  0  0
 19 38  1  0  0  0  0
 20 39  1  0  0  0  0
 20 40  1  0  0  0  0
 20 41  1  0  0  0  0
 21 22  1  0  0  0  0
 21 42  1  0  0  0  0
 22 43  1  0  0  0  0
M  END
> <PUBCHEM_COMPOUND_CID>
24124326

> <PUBCHEM_COMPOUND_CANONICALIZED>
1

> <PUBCHEM_CACTVS_COMPLEXITY>
366

> <PUBCHEM_CACTVS_HBOND_ACCEPTOR>
1

> <PUBCHEM_CACTVS_HBOND_DONOR>
2

> <PUBCHEM_CACTVS_ROTATABLE_BOND>
4

> <PUBCHEM_CACTVS_SUBSKEYS>
AAADceB7IAAEAAAAAAAAAAAAAAAAAAAAAAAwYAAAAAAAAAABQAAAHgIQAAAADIqBGCAzwILAAACIAiRCUACCAAAhBQAIiAAARoiIICLBk5HEIAholAJIyCcQgMAOAAAAIAACABAAAABAAAQAIAAAAAAAAA==

> <PUBCHEM_IUPAC_OPENEYE_NAME>
1-(2-chloro-6-methyl-phenyl)-3-(1,1-dimethyl-2-phenyl-ethyl)urea

> <PUBCHEM_IUPAC_CAS_NAME>
1-(2-chloro-6-methylphenyl)-3-(2-methyl-1-phenylpropan-2-yl)urea

> <PUBCHEM_IUPAC_NAME>
1-(2-chloro-6-methylphenyl)-3-(2-methyl-1-phenylpropan-2-yl)urea

> <PUBCHEM_IUPAC_SYSTEMATIC_NAME>
1-(2-chloranyl-6-methyl-phenyl)-3-(2-methyl-1-phenyl-propan-2-yl)urea

> <PUBCHEM_IUPAC_TRADITIONAL_NAME>
1-(2-chloro-6-methyl-phenyl)-3-(1,1-dimethyl-2-phenyl-ethyl)urea

> <PUBCHEM_IUPAC_INCHI>
InChI=1S/C18H21ClN2O/c1-13-8-7-11-15(19)16(13)20-17(22)21-18(2,3)12-14-9-5-4-6-10-14/h4-11H,12H2,1-3H3,(H2,20,21,22)

> <PUBCHEM_IUPAC_INCHIKEY>
YAANQEXHTJRWIE-UHFFFAOYSA-N

> <PUBCHEM_XLOGP3>
3.6

> <PUBCHEM_EXACT_MASS>
316.134241

> <PUBCHEM_MOLECULAR_FORMULA>
C18H21ClN2O

> <PUBCHEM_MOLECULAR_WEIGHT>
316.82514

> <PUBCHEM_OPENEYE_CAN_SMILES>
CC1=C(C(=CC=C1)Cl)NC(=O)NC(C)(C)CC2=CC=CC=C2

> <PUBCHEM_OPENEYE_ISO_SMILES>
CC1=C(C(=CC=C1)Cl)NC(=O)NC(C)(C)CC2=CC=CC=C2

> <PUBCHEM_CACTVS_TPSA>
41.1

> <PUBCHEM_MONOISOTOPIC_WEIGHT>
316.134241

> <PUBCHEM_TOTAL_CHARGE>
0

> <PUBCHEM_HEAVY_ATOM_COUNT>
22

> <PUBCHEM_ATOM_DEF_STEREO_COUNT>
0

> <PUBCHEM_ATOM_UDEF_STEREO_COUNT>
0

> <PUBCHEM_BOND_DEF_STEREO_COUNT>
0

> <PUBCHEM_BOND_UDEF_STEREO_COUNT>
0

> <PUBCHEM_ISOTOPIC_ATOM_COUNT>
0

> <PUBCHEM_COMPONENT_COUNT>
1

> <PUBCHEM_CACTVS_TAUTO_COUNT>
3

> <PUBCHEM_COORDINATE_TYPE>
1
5
255

> <PUBCHEM_BONDANNOTATIONS>
11  14  8
12  15  8
13  17  8
13  18  8
14  16  8
15  16  8
17  19  8
18  21  8
19  22  8
21  22  8
9  11  8
9  12  8

$$$$
