9628403
  -OEChem-11301217072D

 51 53  0     0  0  0  0  0  0999 V2000
   15.8564   -1.8170    0.0000 F   0  0  0  0  0  0  0  0  0  0  0  0
   14.4904   -2.1830    0.0000 F   0  0  0  0  0  0  0  0  0  0  0  0
   15.4904   -0.4510    0.0000 F   0  0  0  0  0  0  0  0  0  0  0  0
    2.0000    0.1830    0.0000 O   0  0  0  0  0  0  0  0  0  0  0  0
    5.4641    0.1830    0.0000 O   0  0  0  0  0  0  0  0  0  0  0  0
   11.5263    0.6830    0.0000 O   0  0  0  0  0  0  0  0  0  0  0  0
   14.1244    2.1830    0.0000 O   0  5  0  0  0  0  0  0  0  0  0  0
   12.3923    2.1830    0.0000 O   0  0  0  0  0  0  0  0  0  0  0  0
    3.7320   -0.8170    0.0000 N   0  0  0  0  0  0  0  0  0  0  0  0
    6.3301   -1.3170    0.0000 N   0  0  0  0  0  0  0  0  0  0  0  0
    7.1962   -0.8170    0.0000 N   0  0  0  0  0  0  0  0  0  0  0  0
   13.2583    1.6830    0.0000 N   0  3  0  0  0  0  0  0  0  0  0  0
    2.8660   -1.3170    0.0000 C   0  0  0  0  0  0  0  0  0  0  0  0
    3.7320    0.1830    0.0000 C   0  0  0  0  0  0  0  0  0  0  0  0
    2.0000   -0.8170    0.0000 C   0  0  0  0  0  0  0  0  0  0  0  0
    2.8660    0.6830    0.0000 C   0  0  0  0  0  0  0  0  0  0  0  0
    4.5981   -1.3170    0.0000 C   0  0  0  0  0  0  0  0  0  0  0  0
    5.4641   -0.8170    0.0000 C   0  0  0  0  0  0  0  0  0  0  0  0
   12.3923    0.1830    0.0000 C   0  0  0  0  0  0  0  0  0  0  0  0
   14.1244   -0.8170    0.0000 C   0  0  0  0  0  0  0  0  0  0  0  0
   13.2583    0.6830    0.0000 C   0  0  0  0  0  0  0  0  0  0  0  0
    8.9282   -0.8170    0.0000 C   0  0  0  0  0  0  0  0  0  0  0  0
   14.1244    0.1830    0.0000 C   0  0  0  0  0  0  0  0  0  0  0  0
   10.6603    0.1830    0.0000 C   0  0  0  0  0  0  0  0  0  0  0  0
   12.3923   -0.8170    0.0000 C   0  0  0  0  0  0  0  0  0  0  0  0
   13.2583   -1.3170    0.0000 C   0  0  0  0  0  0  0  0  0  0  0  0
    8.0622   -1.3170    0.0000 C   0  0  0  0  0  0  0  0  0  0  0  0
    9.7942   -1.3170    0.0000 C   0  0  0  0  0  0  0  0  0  0  0  0
    8.9282    0.1830    0.0000 C   0  0  0  0  0  0  0  0  0  0  0  0
   10.6603   -0.8170    0.0000 C   0  0  0  0  0  0  0  0  0  0  0  0
    9.7942    0.6830    0.0000 C   0  0  0  0  0  0  0  0  0  0  0  0
   14.9904   -1.3170    0.0000 C   0  0  0  0  0  0  0  0  0  0  0  0
    2.4675   -1.7919    0.0000 H   0  0  0  0  0  0  0  0  0  0  0  0
    3.2646   -1.7919    0.0000 H   0  0  0  0  0  0  0  0  0  0  0  0
    4.3426    0.0754    0.0000 H   0  0  0  0  0  0  0  0  0  0  0  0
    3.9441    0.7656    0.0000 H   0  0  0  0  0  0  0  0  0  0  0  0
    3.2646    1.1580    0.0000 H   0  0  0  0  0  0  0  0  0  0  0  0
    2.4675    1.1580    0.0000 H   0  0  0  0  0  0  0  0  0  0  0  0
    1.3894   -0.7093    0.0000 H   0  0  0  0  0  0  0  0  0  0  0  0
    1.7880   -1.3996    0.0000 H   0  0  0  0  0  0  0  0  0  0  0  0
    4.1996   -1.7919    0.0000 H   0  0  0  0  0  0  0  0  0  0  0  0
    4.9966   -1.7919    0.0000 H   0  0  0  0  0  0  0  0  0  0  0  0
    6.3301   -1.9370    0.0000 H   0  0  0  0  0  0  0  0  0  0  0  0
   14.6613    0.4930    0.0000 H   0  0  0  0  0  0  0  0  0  0  0  0
   11.8554   -1.1270    0.0000 H   0  0  0  0  0  0  0  0  0  0  0  0
   13.2583   -1.9370    0.0000 H   0  0  0  0  0  0  0  0  0  0  0  0
    8.0622   -1.9370    0.0000 H   0  0  0  0  0  0  0  0  0  0  0  0
    9.7942   -1.9370    0.0000 H   0  0  0  0  0  0  0  0  0  0  0  0
    8.3913    0.4930    0.0000 H   0  0  0  0  0  0  0  0  0  0  0  0
   11.1972   -1.1270    0.0000 H   0  0  0  0  0  0  0  0  0  0  0  0
    9.7942    1.3030    0.0000 H   0  0  0  0  0  0  0  0  0  0  0  0
  1 32  1  0  0  0  0
  2 32  1  0  0  0  0
  3 32  1  0  0  0  0
  4 15  1  0  0  0  0
  4 16  1  0  0  0  0
  5 18  2  0  0  0  0
  6 19  1  0  0  0  0
  6 24  1  0  0  0  0
  7 12  1  0  0  0  0
  8 12  2  0  0  0  0
  9 13  1  0  0  0  0
  9 14  1  0  0  0  0
  9 17  1  0  0  0  0
 10 11  1  0  0  0  0
 10 18  1  0  0  0  0
 10 43  1  0  0  0  0
 11 27  2  0  0  0  0
 12 21  1  0  0  0  0
 13 15  1  0  0  0  0
 13 33  1  0  0  0  0
 13 34  1  0  0  0  0
 14 16  1  0  0  0  0
 14 35  1  0  0  0  0
 14 36  1  0  0  0  0
 15 39  1  0  0  0  0
 15 40  1  0  0  0  0
 16 37  1  0  0  0  0
 16 38  1  0  0  0  0
 17 18  1  0  0  0  0
 17 41  1  0  0  0  0
 17 42  1  0  0  0  0
 19 21  2  0  0  0  0
 19 25  1  0  0  0  0
 20 23  2  0  0  0  0
 20 26  1  0  0  0  0
 20 32  1  0  0  0  0
 21 23  1  0  0  0  0
 22 27  1  0  0  0  0
 22 28  2  0  0  0  0
 22 29  1  0  0  0  0
 23 44  1  0  0  0  0
 24 30  2  0  0  0  0
 24 31  1  0  0  0  0
 25 26  2  0  0  0  0
 25 45  1  0  0  0  0
 26 46  1  0  0  0  0
 27 47  1  0  0  0  0
 28 30  1  0  0  0  0
 28 48  1  0  0  0  0
 29 31  2  0  0  0  0
 29 49  1  0  0  0  0
 30 50  1  0  0  0  0
 31 51  1  0  0  0  0
M  CHG  2   7  -1  12   1
M  END
> <PUBCHEM_COMPOUND_CID>
9628403

> <PUBCHEM_COMPOUND_CANONICALIZED>
1

> <PUBCHEM_CACTVS_COMPLEXITY>
659

> <PUBCHEM_CACTVS_HBOND_ACCEPTOR>
10

> <PUBCHEM_CACTVS_HBOND_DONOR>
1

> <PUBCHEM_CACTVS_ROTATABLE_BOND>
6

> <PUBCHEM_CACTVS_SUBSKEYS>
AAADceB7uYAAAAAAAAAAAAAAAAAAAAAAAAA8YIAAAAAAAAABQAAAHwAcAAAADAzhmBYwxoNyRACpAjVzUwCSCAAgIgA6iACvbJoOZqKEsbuTOCDk2FGY6AeQwAAOIAAAQAAAEABAAACAAAAgAAAAAAAAAA==

> <PUBCHEM_IUPAC_OPENEYE_NAME>
2-morpholino-N-[(E)-[4-[2-nitro-4-(trifluoromethyl)phenoxy]phenyl]methyleneamino]acetamide

> <PUBCHEM_IUPAC_CAS_NAME>
2-(4-morpholinyl)-N-[(E)-[4-[2-nitro-4-(trifluoromethyl)phenoxy]phenyl]methylideneamino]acetamide

> <PUBCHEM_IUPAC_NAME>
2-morpholin-4-yl-N-[(E)-[4-[2-nitro-4-(trifluoromethyl)phenoxy]phenyl]methylideneamino]acetamide

> <PUBCHEM_IUPAC_SYSTEMATIC_NAME>
2-morpholin-4-yl-N-[(E)-[4-[2-nitro-4-(trifluoromethyl)phenoxy]phenyl]methylideneamino]ethanamide

> <PUBCHEM_IUPAC_TRADITIONAL_NAME>
2-morpholino-N-[(E)-[4-[2-nitro-4-(trifluoromethyl)phenoxy]benzylidene]amino]acetamide

> <PUBCHEM_IUPAC_INCHI>
InChI=1S/C20H19F3N4O5/c21-20(22,23)15-3-6-18(17(11-15)27(29)30)32-16-4-1-14(2-5-16)12-24-25-19(28)13-26-7-9-31-10-8-26/h1-6,11-12H,7-10,13H2,(H,25,28)/b24-12+

> <PUBCHEM_IUPAC_INCHIKEY>
XFKXSALKGYNRPI-WYMPLXKRSA-N

> <PUBCHEM_XLOGP3>
2.8

> <PUBCHEM_EXACT_MASS>
452.130754

> <PUBCHEM_MOLECULAR_FORMULA>
C20H19F3N4O5

> <PUBCHEM_MOLECULAR_WEIGHT>
452.38387

> <PUBCHEM_OPENEYE_CAN_SMILES>
C1COCCN1CC(=O)NN=CC2=CC=C(C=C2)OC3=C(C=C(C=C3)C(F)(F)F)[N+](=O)[O-]

> <PUBCHEM_OPENEYE_ISO_SMILES>
C1COCCN1CC(=O)N/N=C/C2=CC=C(C=C2)OC3=C(C=C(C=C3)C(F)(F)F)[N+](=O)[O-]

> <PUBCHEM_CACTVS_TPSA>
109

> <PUBCHEM_MONOISOTOPIC_WEIGHT>
452.130754

> <PUBCHEM_TOTAL_CHARGE>
0

> <PUBCHEM_HEAVY_ATOM_COUNT>
32

> <PUBCHEM_ATOM_DEF_STEREO_COUNT>
0

> <PUBCHEM_ATOM_UDEF_STEREO_COUNT>
0

> <PUBCHEM_BOND_DEF_STEREO_COUNT>
1

> <PUBCHEM_BOND_UDEF_STEREO_COUNT>
0

> <PUBCHEM_ISOTOPIC_ATOM_COUNT>
0

> <PUBCHEM_COMPONENT_COUNT>
1

> <PUBCHEM_CACTVS_TAUTO_COUNT>
2

> <PUBCHEM_COORDINATE_TYPE>
1
5
255

> <PUBCHEM_BONDANNOTATIONS>
19  21  8
19  25  8
20  23  8
20  26  8
21  23  8
22  28  8
22  29  8
24  30  8
24  31  8
25  26  8
28  30  8
29  31  8

$$$$
9631597
  -OEChem-11301217082D

 27 27  0     0  0  0  0  0  0999 V2000
    2.0000   -1.2500    0.0000 Cl  0  0  0  0  0  0  0  0  0  0  0  0
    5.4641   -0.2500    0.0000 S   0  0  0  0  0  0  0  0  0  0  0  0
    5.4641    2.7500    0.0000 N   0  0  0  0  0  0  0  0  0  0  0  0
    3.7320   -0.2500    0.0000 N   0  0  0  0  0  0  0  0  0  0  0  0
    4.5981    1.2500    0.0000 N   0  0  0  0  0  0  0  0  0  0  0  0
    3.7320   -1.2500    0.0000 C   0  0  0  0  0  0  0  0  0  0  0  0
    2.8660   -1.7500    0.0000 C   0  0  0  0  0  0  0  0  0  0  0  0
    4.5981   -1.7500    0.0000 C   0  0  0  0  0  0  0  0  0  0  0  0
    2.8660   -2.7500    0.0000 C   0  0  0  0  0  0  0  0  0  0  0  0
    4.5981   -2.7500    0.0000 C   0  0  0  0  0  0  0  0  0  0  0  0
    3.7320   -3.2500    0.0000 C   0  0  0  0  0  0  0  0  0  0  0  0
    6.3301    3.2500    0.0000 C   0  0  0  0  0  0  0  0  0  0  0  0
    4.5981    3.2500    0.0000 C   0  0  0  0  0  0  0  0  0  0  0  0
    5.4641    1.7500    0.0000 C   0  0  0  0  0  0  0  0  0  0  0  0
    4.5981    0.2500    0.0000 C   0  0  0  0  0  0  0  0  0  0  0  0
    5.1350   -1.4400    0.0000 H   0  0  0  0  0  0  0  0  0  0  0  0
    3.1951    0.0600    0.0000 H   0  0  0  0  0  0  0  0  0  0  0  0
    2.3291   -3.0600    0.0000 H   0  0  0  0  0  0  0  0  0  0  0  0
    5.1350   -3.0600    0.0000 H   0  0  0  0  0  0  0  0  0  0  0  0
    3.7320   -3.8700    0.0000 H   0  0  0  0  0  0  0  0  0  0  0  0
    4.9081    3.7869    0.0000 H   0  0  0  0  0  0  0  0  0  0  0  0
    4.0611    3.5600    0.0000 H   0  0  0  0  0  0  0  0  0  0  0  0
    6.6401    2.7131    0.0000 H   0  0  0  0  0  0  0  0  0  0  0  0
    6.8671    3.5600    0.0000 H   0  0  0  0  0  0  0  0  0  0  0  0
    6.0201    3.7869    0.0000 H   0  0  0  0  0  0  0  0  0  0  0  0
    4.2881    2.7131    0.0000 H   0  0  0  0  0  0  0  0  0  0  0  0
    6.0010    1.4400    0.0000 H   0  0  0  0  0  0  0  0  0  0  0  0
  1  7  1  0  0  0  0
  2 15  2  0  0  0  0
  3 12  1  0  0  0  0
  3 13  1  0  0  0  0
  3 14  1  0  0  0  0
  4  6  1  0  0  0  0
  4 15  1  0  0  0  0
  4 17  1  0  0  0  0
  5 14  2  0  0  0  0
  5 15  1  0  0  0  0
  6  7  1  0  0  0  0
  6  8  2  0  0  0  0
  7  9  2  0  0  0  0
  8 10  1  0  0  0  0
  8 16  1  0  0  0  0
  9 11  1  0  0  0  0
  9 18  1  0  0  0  0
 10 11  2  0  0  0  0
 10 19  1  0  0  0  0
 11 20  1  0  0  0  0
 12 23  1  0  0  0  0
 12 24  1  0  0  0  0
 12 25  1  0  0  0  0
 13 21  1  0  0  0  0
 13 22  1  0  0  0  0
 13 26  1  0  0  0  0
 14 27  1  0  0  0  0
M  END
> <PUBCHEM_COMPOUND_CID>
9631597

> <PUBCHEM_COMPOUND_CANONICALIZED>
1

> <PUBCHEM_CACTVS_COMPLEXITY>
243

> <PUBCHEM_CACTVS_HBOND_ACCEPTOR>
1

> <PUBCHEM_CACTVS_HBOND_DONOR>
1

> <PUBCHEM_CACTVS_ROTATABLE_BOND>
2

> <PUBCHEM_CACTVS_SUBSKEYS>
AAADccBzAABEAAAAAAAAAAAAAAAAAAAAAAAwAAAAAAAAAAABAAAAHAYQAAAACAqBECQzwIPAAACkACRDZACCAAEhBwkJiAAIZoiIICLBk5HEIAhgkAJIyCcQAAAAAAAAAAAAABAAAAAAAAAAIAAAAAAAAA==

> <PUBCHEM_IUPAC_OPENEYE_NAME>
(3E)-1-(2-chlorophenyl)-3-(dimethylaminomethylene)thiourea

> <PUBCHEM_IUPAC_CAS_NAME>
(3E)-1-(2-chlorophenyl)-3-(dimethylaminomethylidene)thiourea

> <PUBCHEM_IUPAC_NAME>
(3E)-1-(2-chlorophenyl)-3-(dimethylaminomethylidene)thiourea

> <PUBCHEM_IUPAC_SYSTEMATIC_NAME>
(3E)-1-(2-chlorophenyl)-3-(dimethylaminomethylidene)thiourea

> <PUBCHEM_IUPAC_TRADITIONAL_NAME>
(3E)-1-(2-chlorophenyl)-3-(dimethylaminomethylene)thiourea

> <PUBCHEM_IUPAC_INCHI>
InChI=1S/C10H12ClN3S/c1-14(2)7-12-10(15)13-9-6-4-3-5-8(9)11/h3-7H,1-2H3,(H,13,15)/b12-7+

> <PUBCHEM_IUPAC_INCHIKEY>
QVWZKHJVVPBCMP-KPKJPENVSA-N

> <PUBCHEM_XLOGP3>
2

> <PUBCHEM_EXACT_MASS>
241.044046

> <PUBCHEM_MOLECULAR_FORMULA>
C10H12ClN3S

> <PUBCHEM_MOLECULAR_WEIGHT>
241.74038

> <PUBCHEM_OPENEYE_CAN_SMILES>
CN(C)C=NC(=S)NC1=CC=CC=C1Cl

> <PUBCHEM_OPENEYE_ISO_SMILES>
CN(C)/C=N/C(=S)NC1=CC=CC=C1Cl

> <PUBCHEM_CACTVS_TPSA>
59.7

> <PUBCHEM_MONOISOTOPIC_WEIGHT>
241.044046

> <PUBCHEM_TOTAL_CHARGE>
0

> <PUBCHEM_HEAVY_ATOM_COUNT>
15

> <PUBCHEM_ATOM_DEF_STEREO_COUNT>
0

> <PUBCHEM_ATOM_UDEF_STEREO_COUNT>
0

> <PUBCHEM_BOND_DEF_STEREO_COUNT>
1

> <PUBCHEM_BOND_UDEF_STEREO_COUNT>
0

> <PUBCHEM_ISOTOPIC_ATOM_COUNT>
0

> <PUBCHEM_COMPONENT_COUNT>
1

> <PUBCHEM_CACTVS_TAUTO_COUNT>
2

> <PUBCHEM_COORDINATE_TYPE>
1
5
255

> <PUBCHEM_BONDANNOTATIONS>
10  11  8
6  7  8
6  8  8
7  9  8
8  10  8
9  11  8

$$$$
9633059
  -OEChem-11301217082D

 47 50  0     1  0  0  0  0  0999 V2000
    6.7619   -3.4283    0.0000 Cl  0  0  0  0  0  0  0  0  0  0  0  0
    4.4026    1.7351    0.0000 O   0  0  0  0  0  0  0  0  0  0  0  0
    6.7485    0.6433    0.0000 O   0  0  0  0  0  0  0  0  0  0  0  0
    6.7523    2.8188    0.0000 O   0  0  0  0  0  0  0  0  0  0  0  0
    3.7066    3.7043    0.0000 O   0  0  0  0  0  0  0  0  0  0  0  0
    4.6783   -0.0254    0.0000 N   0  0  0  0  0  0  0  0  0  0  0  0
    4.6783   -1.6349    0.0000 N   0  0  0  0  0  0  0  0  0  0  0  0
    6.2619   -0.8302    0.0000 N   0  0  0  0  0  0  0  0  0  0  0  0
    2.8660    0.1698    0.0000 N   0  0  0  0  0  0  0  0  0  0  0  0
    2.0000   -1.3302    0.0000 N   0  0  0  0  0  0  0  0  0  0  0  0
    6.7619   -1.6962    0.0000 N   0  0  0  0  0  0  0  0  0  0  0  0
    2.8660   -2.8302    0.0000 N   0  0  0  0  0  0  0  0  0  0  0  0
    5.9405    1.2324    0.0000 C   0  0  3  0  0  0  0  0  0  0  0  0
    4.9889    0.9251    0.0000 C   0  0  3  0  0  0  0  0  0  0  0  0
    5.9422    2.2324    0.0000 C   0  0  3  0  0  0  0  0  0  0  0  0
    4.9917    2.5431    0.0000 C   0  0  3  0  0  0  0  0  0  0  0  0
    4.6844    3.4947    0.0000 C   0  0  0  0  0  0  0  0  0  0  0  0
    3.7320   -0.3302    0.0000 C   0  0  0  0  0  0  0  0  0  0  0  0
    5.2619   -0.8302    0.0000 C   0  0  0  0  0  0  0  0  0  0  0  0
    3.7320   -1.3302    0.0000 C   0  0  0  0  0  0  0  0  0  0  0  0
    2.8660   -1.8302    0.0000 C   0  0  0  0  0  0  0  0  0  0  0  0
    2.0000   -0.3302    0.0000 C   0  0  0  0  0  0  0  0  0  0  0  0
    7.7619   -1.6962    0.0000 C   0  0  0  0  0  0  0  0  0  0  0  0
    8.2619   -2.5622    0.0000 C   0  0  0  0  0  0  0  0  0  0  0  0
    7.7619   -3.4283    0.0000 C   0  0  0  0  0  0  0  0  0  0  0  0
    9.2619   -2.5622    0.0000 C   0  0  0  0  0  0  0  0  0  0  0  0
    8.2619   -4.2943    0.0000 C   0  0  0  0  0  0  0  0  0  0  0  0
    9.7619   -3.4283    0.0000 C   0  0  0  0  0  0  0  0  0  0  0  0
    9.2619   -4.2943    0.0000 C   0  0  0  0  0  0  0  0  0  0  0  0
    5.8425    0.6202    0.0000 H   0  0  0  0  0  0  0  0  0  0  0  0
    5.4266    0.4859    0.0000 H   0  0  0  0  0  0  0  0  0  0  0  0
    6.4942    1.9500    0.0000 H   0  0  0  0  0  0  0  0  0  0  0  0
    4.3795    2.6412    0.0000 H   0  0  0  0  0  0  0  0  0  0  0  0
    5.2985    3.5799    0.0000 H   0  0  0  0  0  0  0  0  0  0  0  0
    4.7071    4.1143    0.0000 H   0  0  0  0  0  0  0  0  0  0  0  0
    7.3154    0.8945    0.0000 H   0  0  0  0  0  0  0  0  0  0  0  0
    6.6886    3.4355    0.0000 H   0  0  0  0  0  0  0  0  0  0  0  0
    3.5160    4.2943    0.0000 H   0  0  0  0  0  0  0  0  0  0  0  0
    6.5719   -0.2932    0.0000 H   0  0  0  0  0  0  0  0  0  0  0  0
    1.4631   -0.0202    0.0000 H   0  0  0  0  0  0  0  0  0  0  0  0
    2.3291   -3.1402    0.0000 H   0  0  0  0  0  0  0  0  0  0  0  0
    3.4030   -3.1402    0.0000 H   0  0  0  0  0  0  0  0  0  0  0  0
    8.0719   -1.1593    0.0000 H   0  0  0  0  0  0  0  0  0  0  0  0
    9.5719   -2.0253    0.0000 H   0  0  0  0  0  0  0  0  0  0  0  0
    7.9519   -4.8312    0.0000 H   0  0  0  0  0  0  0  0  0  0  0  0
   10.3819   -3.4283    0.0000 H   0  0  0  0  0  0  0  0  0  0  0  0
    9.5719   -4.8312    0.0000 H   0  0  0  0  0  0  0  0  0  0  0  0
  1 25  1  0  0  0  0
  2 14  1  0  0  0  0
  2 16  1  0  0  0  0
  3 13  1  0  0  0  0
  3 36  1  0  0  0  0
  4 15  1  0  0  0  0
  4 37  1  0  0  0  0
  5 17  1  0  0  0  0
  5 38  1  0  0  0  0
  6 14  1  0  0  0  0
  6 18  1  0  0  0  0
  6 19  1  0  0  0  0
  7 19  2  0  0  0  0
  7 20  1  0  0  0  0
  8 11  1  0  0  0  0
  8 19  1  0  0  0  0
  8 39  1  0  0  0  0
  9 18  2  0  0  0  0
  9 22  1  0  0  0  0
 10 21  1  0  0  0  0
 10 22  2  0  0  0  0
 11 23  2  0  0  0  0
 12 21  1  0  0  0  0
 12 41  1  0  0  0  0
 12 42  1  0  0  0  0
 13 14  1  0  0  0  0
 13 15  1  0  0  0  0
 13 30  1  0  0  0  0
 14 31  1  0  0  0  0
 15 16  1  0  0  0  0
 15 32  1  0  0  0  0
 16 17  1  0  0  0  0
 16 33  1  0  0  0  0
 17 34  1  0  0  0  0
 17 35  1  0  0  0  0
 18 20  1  0  0  0  0
 20 21  2  0  0  0  0
 22 40  1  0  0  0  0
 23 24  1  0  0  0  0
 23 43  1  0  0  0  0
 24 25  1  0  0  0  0
 24 26  2  0  0  0  0
 25 27  2  0  0  0  0
 26 28  1  0  0  0  0
 26 44  1  0  0  0  0
 27 29  1  0  0  0  0
 27 45  1  0  0  0  0
 28 29  2  0  0  0  0
 28 46  1  0  0  0  0
 29 47  1  0  0  0  0
M  END
> <PUBCHEM_COMPOUND_CID>
9633059

> <PUBCHEM_COMPOUND_CANONICALIZED>
1

> <PUBCHEM_CACTVS_COMPLEXITY>
590

> <PUBCHEM_CACTVS_HBOND_ACCEPTOR>
10

> <PUBCHEM_CACTVS_HBOND_DONOR>
5

> <PUBCHEM_CACTVS_ROTATABLE_BOND>
5

> <PUBCHEM_CACTVS_SUBSKEYS>
AAADceB7uAAEAAAAAAAAAAAAAAAAAWJAAAA8QAAAAAAAAFgB/AAAHgIYCAAADB7hnyY18L9uFgCgAzZjZACSgC0xFaAN2CAoVpiLeKLB21CeZAgviALbiCfwsAIOAAAAAAABAAAAAAAAAAIAAAAAAAAAAA==

> <PUBCHEM_IUPAC_OPENEYE_NAME>
2-[6-amino-8-[(2E)-2-[(2-chlorophenyl)methylene]hydrazino]purin-9-yl]-5-(hydroxymethyl)tetrahydrofuran-3,4-diol

> <PUBCHEM_IUPAC_CAS_NAME>
2-[6-amino-8-[(2E)-2-[(2-chlorophenyl)methylidene]hydrazinyl]-9-purinyl]-5-(hydroxymethyl)oxolane-3,4-diol

> <PUBCHEM_IUPAC_NAME>
2-[6-amino-8-[(2E)-2-[(2-chlorophenyl)methylidene]hydrazinyl]purin-9-yl]-5-(hydroxymethyl)oxolane-3,4-diol

> <PUBCHEM_IUPAC_SYSTEMATIC_NAME>
2-[6-azanyl-8-[(2E)-2-[(2-chlorophenyl)methylidene]hydrazinyl]purin-9-yl]-5-(hydroxymethyl)oxolane-3,4-diol

> <PUBCHEM_IUPAC_TRADITIONAL_NAME>
2-[6-amino-8-[(N'E)-N'-(2-chlorobenzylidene)hydrazino]purin-9-yl]-5-methylol-tetrahydrofuran-3,4-diol

> <PUBCHEM_IUPAC_INCHI>
InChI=1S/C17H18ClN7O4/c18-9-4-2-1-3-8(9)5-22-24-17-23-11-14(19)20-7-21-15(11)25(17)16-13(28)12(27)10(6-26)29-16/h1-5,7,10,12-13,16,26-28H,6H2,(H,23,24)(H2,19,20,21)/b22-5+

> <PUBCHEM_IUPAC_INCHIKEY>
USIVRAOGSAJTAX-RREIPUBJSA-N

> <PUBCHEM_XLOGP3>
1.5

> <PUBCHEM_EXACT_MASS>
419.11088

> <PUBCHEM_MOLECULAR_FORMULA>
C17H18ClN7O4

> <PUBCHEM_MOLECULAR_WEIGHT>
419.82232

> <PUBCHEM_OPENEYE_CAN_SMILES>
C1=CC=C(C(=C1)C=NNC2=NC3=C(N2C4C(C(C(O4)CO)O)O)N=CN=C3N)Cl

> <PUBCHEM_OPENEYE_ISO_SMILES>
C1=CC=C(C(=C1)/C=N/NC2=NC3=C(N2C4C(C(C(O4)CO)O)O)N=CN=C3N)Cl

> <PUBCHEM_CACTVS_TPSA>
164

> <PUBCHEM_MONOISOTOPIC_WEIGHT>
419.11088

> <PUBCHEM_TOTAL_CHARGE>
0

> <PUBCHEM_HEAVY_ATOM_COUNT>
29

> <PUBCHEM_ATOM_DEF_STEREO_COUNT>
0

> <PUBCHEM_ATOM_UDEF_STEREO_COUNT>
4

> <PUBCHEM_BOND_DEF_STEREO_COUNT>
1

> <PUBCHEM_BOND_UDEF_STEREO_COUNT>
0

> <PUBCHEM_ISOTOPIC_ATOM_COUNT>
0

> <PUBCHEM_COMPONENT_COUNT>
1

> <PUBCHEM_CACTVS_TAUTO_COUNT>
6

> <PUBCHEM_COORDINATE_TYPE>
1
5
255

> <PUBCHEM_BONDANNOTATIONS>
10  21  8
10  22  8
16  17  3
18  20  8
20  21  8
24  25  8
24  26  8
25  27  8
26  28  8
27  29  8
28  29  8
13  3  3
15  4  3
14  6  3
6  18  8
6  19  8
7  19  8
7  20  8
9  18  8
9  22  8

$$$$
9637549
  -OEChem-11301217082D

 47 50  0     1  0  0  0  0  0999 V2000
    4.4026    1.7351    0.0000 O   0  0  0  0  0  0  0  0  0  0  0  0
    6.7485    0.6433    0.0000 O   0  0  0  0  0  0  0  0  0  0  0  0
    6.7523    2.8188    0.0000 O   0  0  0  0  0  0  0  0  0  0  0  0
    3.7066    3.7043    0.0000 O   0  0  0  0  0  0  0  0  0  0  0  0
    4.6783   -0.0254    0.0000 N   0  0  0  0  0  0  0  0  0  0  0  0
    4.6783   -1.6349    0.0000 N   0  0  0  0  0  0  0  0  0  0  0  0
    6.2619   -0.8302    0.0000 N   0  0  0  0  0  0  0  0  0  0  0  0
    2.8660    0.1698    0.0000 N   0  0  0  0  0  0  0  0  0  0  0  0
    2.0000   -1.3302    0.0000 N   0  0  0  0  0  0  0  0  0  0  0  0
    6.7619   -1.6962    0.0000 N   0  0  0  0  0  0  0  0  0  0  0  0
    2.8660   -2.8302    0.0000 N   0  0  0  0  0  0  0  0  0  0  0  0
    5.9405    1.2324    0.0000 C   0  0  3  0  0  0  0  0  0  0  0  0
    4.9889    0.9251    0.0000 C   0  0  3  0  0  0  0  0  0  0  0  0
    5.9422    2.2324    0.0000 C   0  0  3  0  0  0  0  0  0  0  0  0
    4.9917    2.5431    0.0000 C   0  0  3  0  0  0  0  0  0  0  0  0
    4.6844    3.4947    0.0000 C   0  0  0  0  0  0  0  0  0  0  0  0
    3.7320   -0.3302    0.0000 C   0  0  0  0  0  0  0  0  0  0  0  0
    5.2619   -0.8302    0.0000 C   0  0  0  0  0  0  0  0  0  0  0  0
    3.7320   -1.3302    0.0000 C   0  0  0  0  0  0  0  0  0  0  0  0
    2.8660   -1.8302    0.0000 C   0  0  0  0  0  0  0  0  0  0  0  0
    2.0000   -0.3302    0.0000 C   0  0  0  0  0  0  0  0  0  0  0  0
    7.7619   -1.6962    0.0000 C   0  0  0  0  0  0  0  0  0  0  0  0
    8.2619   -2.5622    0.0000 C   0  0  0  0  0  0  0  0  0  0  0  0
    7.7619   -3.4283    0.0000 C   0  0  0  0  0  0  0  0  0  0  0  0
    9.2619   -2.5622    0.0000 C   0  0  0  0  0  0  0  0  0  0  0  0
    8.2619   -4.2943    0.0000 C   0  0  0  0  0  0  0  0  0  0  0  0
    9.7619   -3.4283    0.0000 C   0  0  0  0  0  0  0  0  0  0  0  0
    9.2619   -4.2943    0.0000 C   0  0  0  0  0  0  0  0  0  0  0  0
    5.8061    0.3931    0.0000 H   0  0  0  0  0  0  0  0  0  0  0  0
    5.5889    0.3230    0.0000 H   0  0  0  0  0  0  0  0  0  0  0  0
    6.6989    1.8452    0.0000 H   0  0  0  0  0  0  0  0  0  0  0  0
    4.1524    2.6775    0.0000 H   0  0  0  0  0  0  0  0  0  0  0  0
    5.2985    3.5799    0.0000 H   0  0  0  0  0  0  0  0  0  0  0  0
    4.7071    4.1143    0.0000 H   0  0  0  0  0  0  0  0  0  0  0  0
    7.3154    0.8945    0.0000 H   0  0  0  0  0  0  0  0  0  0  0  0
    6.6886    3.4355    0.0000 H   0  0  0  0  0  0  0  0  0  0  0  0
    3.5160    4.2943    0.0000 H   0  0  0  0  0  0  0  0  0  0  0  0
    6.5719   -0.2932    0.0000 H   0  0  0  0  0  0  0  0  0  0  0  0
    1.4631   -0.0202    0.0000 H   0  0  0  0  0  0  0  0  0  0  0  0
    2.3291   -3.1402    0.0000 H   0  0  0  0  0  0  0  0  0  0  0  0
    3.4030   -3.1402    0.0000 H   0  0  0  0  0  0  0  0  0  0  0  0
    8.0719   -1.1593    0.0000 H   0  0  0  0  0  0  0  0  0  0  0  0
    7.1419   -3.4283    0.0000 H   0  0  0  0  0  0  0  0  0  0  0  0
    9.5719   -2.0253    0.0000 H   0  0  0  0  0  0  0  0  0  0  0  0
    7.9519   -4.8312    0.0000 H   0  0  0  0  0  0  0  0  0  0  0  0
   10.3819   -3.4283    0.0000 H   0  0  0  0  0  0  0  0  0  0  0  0
    9.5719   -4.8312    0.0000 H   0  0  0  0  0  0  0  0  0  0  0  0
  1 13  1  0  0  0  0
  1 15  1  0  0  0  0
  2 12  1  0  0  0  0
  2 35  1  0  0  0  0
  3 14  1  0  0  0  0
  3 36  1  0  0  0  0
  4 16  1  0  0  0  0
  4 37  1  0  0  0  0
  5 13  1  0  0  0  0
  5 17  1  0  0  0  0
  5 18  1  0  0  0  0
  6 18  2  0  0  0  0
  6 19  1  0  0  0  0
  7 10  1  0  0  0  0
  7 18  1  0  0  0  0
  7 38  1  0  0  0  0
  8 17  1  0  0  0  0
  8 21  2  0  0  0  0
  9 20  2  0  0  0  0
  9 21  1  0  0  0  0
 10 22  2  0  0  0  0
 11 20  1  0  0  0  0
 11 40  1  0  0  0  0
 11 41  1  0  0  0  0
 12 13  1  0  0  0  0
 12 14  1  0  0  0  0
 12 29  1  0  0  0  0
 13 30  1  0  0  0  0
 14 15  1  0  0  0  0
 14 31  1  0  0  0  0
 15 16  1  0  0  0  0
 15 32  1  0  0  0  0
 16 33  1  0  0  0  0
 16 34  1  0  0  0  0
 17 19  2  0  0  0  0
 19 20  1  0  0  0  0
 21 39  1  0  0  0  0
 22 23  1  0  0  0  0
 22 42  1  0  0  0  0
 23 24  2  0  0  0  0
 23 25  1  0  0  0  0
 24 26  1  0  0  0  0
 24 43  1  0  0  0  0
 25 27  2  0  0  0  0
 25 44  1  0  0  0  0
 26 28  2  0  0  0  0
 26 45  1  0  0  0  0
 27 28  1  0  0  0  0
 27 46  1  0  0  0  0
 28 47  1  0  0  0  0
M  END
> <PUBCHEM_COMPOUND_CID>
9637549

> <PUBCHEM_COMPOUND_CANONICALIZED>
1

> <PUBCHEM_CACTVS_COMPLEXITY>
550

> <PUBCHEM_CACTVS_HBOND_ACCEPTOR>
10

> <PUBCHEM_CACTVS_HBOND_DONOR>
5

> <PUBCHEM_CACTVS_ROTATABLE_BOND>
5

> <PUBCHEM_CACTVS_SUBSKEYS>
AAADceB7uAAAAAAAAAAAAAAAAAAAAWJAAAA8QAAAAAAAAFgB/AAAHgAYCAAADBzhnwY18L9uFgCgAzZjZACSgC0xEKAN2CAoVJiLeKLA2VCeZAgviALbiCfwsAIOAAAAAAAAAAAAAAAAAAAAAAAAAAAAAA==

> <PUBCHEM_IUPAC_OPENEYE_NAME>
2-[6-amino-8-[(2E)-2-benzylidenehydrazino]purin-9-yl]-5-(hydroxymethyl)tetrahydrofuran-3,4-diol

> <PUBCHEM_IUPAC_CAS_NAME>
2-[6-amino-8-[(2E)-2-(phenylmethylene)hydrazinyl]-9-purinyl]-5-(hydroxymethyl)oxolane-3,4-diol

> <PUBCHEM_IUPAC_NAME>
2-[6-amino-8-[(2E)-2-benzylidenehydrazinyl]purin-9-yl]-5-(hydroxymethyl)oxolane-3,4-diol

> <PUBCHEM_IUPAC_SYSTEMATIC_NAME>
2-[6-azanyl-8-[(2E)-2-(phenylmethylidene)hydrazinyl]purin-9-yl]-5-(hydroxymethyl)oxolane-3,4-diol

> <PUBCHEM_IUPAC_TRADITIONAL_NAME>
2-[6-amino-8-[(N'E)-N'-benzalhydrazino]purin-9-yl]-5-methylol-tetrahydrofuran-3,4-diol

> <PUBCHEM_IUPAC_INCHI>
InChI=1S/C17H19N7O4/c18-14-11-15(20-8-19-14)24(16-13(27)12(26)10(7-25)28-16)17(22-11)23-21-6-9-4-2-1-3-5-9/h1-6,8,10,12-13,16,25-27H,7H2,(H,22,23)(H2,18,19,20)/b21-6+

> <PUBCHEM_IUPAC_INCHIKEY>
BYHXYKVPYGWHQF-AERZKKPOSA-N

> <PUBCHEM_XLOGP3>
0.9

> <PUBCHEM_EXACT_MASS>
385.149852

> <PUBCHEM_MOLECULAR_FORMULA>
C17H19N7O4

> <PUBCHEM_MOLECULAR_WEIGHT>
385.37726

> <PUBCHEM_OPENEYE_CAN_SMILES>
C1=CC=C(C=C1)C=NNC2=NC3=C(N2C4C(C(C(O4)CO)O)O)N=CN=C3N

> <PUBCHEM_OPENEYE_ISO_SMILES>
C1=CC=C(C=C1)/C=N/NC2=NC3=C(N2C4C(C(C(O4)CO)O)O)N=CN=C3N

> <PUBCHEM_CACTVS_TPSA>
164

> <PUBCHEM_MONOISOTOPIC_WEIGHT>
385.149852

> <PUBCHEM_TOTAL_CHARGE>
0

> <PUBCHEM_HEAVY_ATOM_COUNT>
28

> <PUBCHEM_ATOM_DEF_STEREO_COUNT>
0

> <PUBCHEM_ATOM_UDEF_STEREO_COUNT>
4

> <PUBCHEM_BOND_DEF_STEREO_COUNT>
1

> <PUBCHEM_BOND_UDEF_STEREO_COUNT>
0

> <PUBCHEM_ISOTOPIC_ATOM_COUNT>
0

> <PUBCHEM_COMPONENT_COUNT>
1

> <PUBCHEM_CACTVS_TAUTO_COUNT>
6

> <PUBCHEM_COORDINATE_TYPE>
1
5
255

> <PUBCHEM_BONDANNOTATIONS>
12  29  3
13  30  3
14  31  3
15  32  3
17  19  8
19  20  8
23  24  8
23  25  8
24  26  8
25  27  8
26  28  8
27  28  8
5  17  8
5  18  8
6  18  8
6  19  8
8  17  8
8  21  8
9  20  8
9  21  8

$$$$
9641167
  -OEChem-11301217082D

 47 50  0     1  0  0  0  0  0999 V2000
    9.7619   -4.7273    0.0000 Br  0  0  0  0  0  0  0  0  0  0  0  0
    4.4026    2.1681    0.0000 O   0  0  0  0  0  0  0  0  0  0  0  0
    6.7485    1.0763    0.0000 O   0  0  0  0  0  0  0  0  0  0  0  0
    6.7523    3.2518    0.0000 O   0  0  0  0  0  0  0  0  0  0  0  0
    3.7066    4.1373    0.0000 O   0  0  0  0  0  0  0  0  0  0  0  0
    4.6783    0.4076    0.0000 N   0  0  0  0  0  0  0  0  0  0  0  0
    4.6783   -1.2019    0.0000 N   0  0  0  0  0  0  0  0  0  0  0  0
    6.2619   -0.3972    0.0000 N   0  0  0  0  0  0  0  0  0  0  0  0
    2.8660    0.6028    0.0000 N   0  0  0  0  0  0  0  0  0  0  0  0
    2.0000   -0.8972    0.0000 N   0  0  0  0  0  0  0  0  0  0  0  0
    6.7619   -1.2632    0.0000 N   0  0  0  0  0  0  0  0  0  0  0  0
    2.8660   -2.3972    0.0000 N   0  0  0  0  0  0  0  0  0  0  0  0
    5.9405    1.6654    0.0000 C   0  0  3  0  0  0  0  0  0  0  0  0
    4.9889    1.3581    0.0000 C   0  0  3  0  0  0  0  0  0  0  0  0
    5.9422    2.6654    0.0000 C   0  0  3  0  0  0  0  0  0  0  0  0
    4.9917    2.9761    0.0000 C   0  0  3  0  0  0  0  0  0  0  0  0
    4.6844    3.9277    0.0000 C   0  0  0  0  0  0  0  0  0  0  0  0
    3.7320    0.1028    0.0000 C   0  0  0  0  0  0  0  0  0  0  0  0
    5.2619   -0.3972    0.0000 C   0  0  0  0  0  0  0  0  0  0  0  0
    3.7320   -0.8972    0.0000 C   0  0  0  0  0  0  0  0  0  0  0  0
    2.8660   -1.3972    0.0000 C   0  0  0  0  0  0  0  0  0  0  0  0
    2.0000    0.1028    0.0000 C   0  0  0  0  0  0  0  0  0  0  0  0
    7.7619   -1.2632    0.0000 C   0  0  0  0  0  0  0  0  0  0  0  0
    8.2619   -2.1292    0.0000 C   0  0  0  0  0  0  0  0  0  0  0  0
    7.7619   -2.9952    0.0000 C   0  0  0  0  0  0  0  0  0  0  0  0
    9.2619   -2.1292    0.0000 C   0  0  0  0  0  0  0  0  0  0  0  0
    8.2619   -3.8613    0.0000 C   0  0  0  0  0  0  0  0  0  0  0  0
    9.7619   -2.9952    0.0000 C   0  0  0  0  0  0  0  0  0  0  0  0
    9.2619   -3.8613    0.0000 C   0  0  0  0  0  0  0  0  0  0  0  0
    5.8061    0.8262    0.0000 H   0  0  0  0  0  0  0  0  0  0  0  0
    5.5889    0.7560    0.0000 H   0  0  0  0  0  0  0  0  0  0  0  0
    6.6989    2.2782    0.0000 H   0  0  0  0  0  0  0  0  0  0  0  0
    4.1524    3.1105    0.0000 H   0  0  0  0  0  0  0  0  0  0  0  0
    5.2985    4.0129    0.0000 H   0  0  0  0  0  0  0  0  0  0  0  0
    4.7071    4.5473    0.0000 H   0  0  0  0  0  0  0  0  0  0  0  0
    7.3154    1.3275    0.0000 H   0  0  0  0  0  0  0  0  0  0  0  0
    6.6886    3.8686    0.0000 H   0  0  0  0  0  0  0  0  0  0  0  0
    3.5160    4.7273    0.0000 H   0  0  0  0  0  0  0  0  0  0  0  0
    6.5719    0.1398    0.0000 H   0  0  0  0  0  0  0  0  0  0  0  0
    1.4631    0.4128    0.0000 H   0  0  0  0  0  0  0  0  0  0  0  0
    2.3291   -2.7072    0.0000 H   0  0  0  0  0  0  0  0  0  0  0  0
    3.4030   -2.7072    0.0000 H   0  0  0  0  0  0  0  0  0  0  0  0
    8.0719   -0.7263    0.0000 H   0  0  0  0  0  0  0  0  0  0  0  0
    7.1419   -2.9952    0.0000 H   0  0  0  0  0  0  0  0  0  0  0  0
    9.5719   -1.5923    0.0000 H   0  0  0  0  0  0  0  0  0  0  0  0
    7.9519   -4.3982    0.0000 H   0  0  0  0  0  0  0  0  0  0  0  0
   10.3819   -2.9952    0.0000 H   0  0  0  0  0  0  0  0  0  0  0  0
  1 29  1  0  0  0  0
  2 14  1  0  0  0  0
  2 16  1  0  0  0  0
  3 13  1  0  0  0  0
  3 36  1  0  0  0  0
  4 15  1  0  0  0  0
  4 37  1  0  0  0  0
  5 17  1  0  0  0  0
  5 38  1  0  0  0  0
  6 14  1  0  0  0  0
  6 18  1  0  0  0  0
  6 19  1  0  0  0  0
  7 19  2  0  0  0  0
  7 20  1  0  0  0  0
  8 11  1  0  0  0  0
  8 19  1  0  0  0  0
  8 39  1  0  0  0  0
  9 18  1  0  0  0  0
  9 22  2  0  0  0  0
 10 21  2  0  0  0  0
 10 22  1  0  0  0  0
 11 23  2  0  0  0  0
 12 21  1  0  0  0  0
 12 41  1  0  0  0  0
 12 42  1  0  0  0  0
 13 14  1  0  0  0  0
 13 15  1  0  0  0  0
 13 30  1  0  0  0  0
 14 31  1  0  0  0  0
 15 16  1  0  0  0  0
 15 32  1  0  0  0  0
 16 17  1  0  0  0  0
 16 33  1  0  0  0  0
 17 34  1  0  0  0  0
 17 35  1  0  0  0  0
 18 20  2  0  0  0  0
 20 21  1  0  0  0  0
 22 40  1  0  0  0  0
 23 24  1  0  0  0  0
 23 43  1  0  0  0  0
 24 25  2  0  0  0  0
 24 26  1  0  0  0  0
 25 27  1  0  0  0  0
 25 44  1  0  0  0  0
 26 28  2  0  0  0  0
 26 45  1  0  0  0  0
 27 29  2  0  0  0  0
 27 46  1  0  0  0  0
 28 29  1  0  0  0  0
 28 47  1  0  0  0  0
M  END
> <PUBCHEM_COMPOUND_CID>
9641167

> <PUBCHEM_COMPOUND_CANONICALIZED>
1

> <PUBCHEM_CACTVS_COMPLEXITY>
582

> <PUBCHEM_CACTVS_HBOND_ACCEPTOR>
10

> <PUBCHEM_CACTVS_HBOND_DONOR>
5

> <PUBCHEM_CACTVS_ROTATABLE_BOND>
5

> <PUBCHEM_CACTVS_SUBSKEYS>
AAADceB7uAAAEAAAAAAAAAAAAAAAAWJAAAA8QAAAAAAAAFgB/AAAHgBYCAABrBzhnwY18L9uFgCgAzZjZACSgC0xEKQN2CAoVLiLeKLA2VCeZAgviALbijfwsAIOAgAAAAAAAAAEAAAAAAAAAAAAAAAAAA==

> <PUBCHEM_IUPAC_OPENEYE_NAME>
2-[6-amino-8-[(2E)-2-[(4-bromophenyl)methylene]hydrazino]purin-9-yl]-5-(hydroxymethyl)tetrahydrofuran-3,4-diol

> <PUBCHEM_IUPAC_CAS_NAME>
2-[6-amino-8-[(2E)-2-[(4-bromophenyl)methylidene]hydrazinyl]-9-purinyl]-5-(hydroxymethyl)oxolane-3,4-diol

> <PUBCHEM_IUPAC_NAME>
2-[6-amino-8-[(2E)-2-[(4-bromophenyl)methylidene]hydrazinyl]purin-9-yl]-5-(hydroxymethyl)oxolane-3,4-diol

> <PUBCHEM_IUPAC_SYSTEMATIC_NAME>
2-[6-azanyl-8-[(2E)-2-[(4-bromophenyl)methylidene]hydrazinyl]purin-9-yl]-5-(hydroxymethyl)oxolane-3,4-diol

> <PUBCHEM_IUPAC_TRADITIONAL_NAME>
2-[6-amino-8-[(N'E)-N'-(4-bromobenzylidene)hydrazino]purin-9-yl]-5-methylol-tetrahydrofuran-3,4-diol

> <PUBCHEM_IUPAC_INCHI>
InChI=1S/C17H18BrN7O4/c18-9-3-1-8(2-4-9)5-22-24-17-23-11-14(19)20-7-21-15(11)25(17)16-13(28)12(27)10(6-26)29-16/h1-5,7,10,12-13,16,26-28H,6H2,(H,23,24)(H2,19,20,21)/b22-5+

> <PUBCHEM_IUPAC_INCHIKEY>
NURMOILNLGAJAV-RREIPUBJSA-N

> <PUBCHEM_XLOGP3>
1.6

> <PUBCHEM_EXACT_MASS>
463.060364

> <PUBCHEM_MOLECULAR_FORMULA>
C17H18BrN7O4

> <PUBCHEM_MOLECULAR_WEIGHT>
464.27332

> <PUBCHEM_OPENEYE_CAN_SMILES>
C1=CC(=CC=C1C=NNC2=NC3=C(N2C4C(C(C(O4)CO)O)O)N=CN=C3N)Br

> <PUBCHEM_OPENEYE_ISO_SMILES>
C1=CC(=CC=C1/C=N/NC2=NC3=C(N2C4C(C(C(O4)CO)O)O)N=CN=C3N)Br

> <PUBCHEM_CACTVS_TPSA>
164

> <PUBCHEM_MONOISOTOPIC_WEIGHT>
463.060364

> <PUBCHEM_TOTAL_CHARGE>
0

> <PUBCHEM_HEAVY_ATOM_COUNT>
29

> <PUBCHEM_ATOM_DEF_STEREO_COUNT>
0

> <PUBCHEM_ATOM_UDEF_STEREO_COUNT>
4

> <PUBCHEM_BOND_DEF_STEREO_COUNT>
1

> <PUBCHEM_BOND_UDEF_STEREO_COUNT>
0

> <PUBCHEM_ISOTOPIC_ATOM_COUNT>
0

> <PUBCHEM_COMPONENT_COUNT>
1

> <PUBCHEM_CACTVS_TAUTO_COUNT>
6

> <PUBCHEM_COORDINATE_TYPE>
1
5
255

> <PUBCHEM_BONDANNOTATIONS>
10  21  8
10  22  8
13  30  3
14  31  3
15  32  3
16  33  3
18  20  8
20  21  8
24  25  8
24  26  8
25  27  8
26  28  8
27  29  8
28  29  8
6  18  8
6  19  8
7  19  8
7  20  8
9  18  8
9  22  8

$$$$
9641375
  -OEChem-11301217082D

 47 50  0     1  0  0  0  0  0999 V2000
    9.7619   -4.7273    0.0000 Cl  0  0  0  0  0  0  0  0  0  0  0  0
    4.4026    2.1681    0.0000 O   0  0  0  0  0  0  0  0  0  0  0  0
    6.7485    1.0763    0.0000 O   0  0  0  0  0  0  0  0  0  0  0  0
    6.7523    3.2518    0.0000 O   0  0  0  0  0  0  0  0  0  0  0  0
    3.7066    4.1373    0.0000 O   0  0  0  0  0  0  0  0  0  0  0  0
    4.6783    0.4076    0.0000 N   0  0  0  0  0  0  0  0  0  0  0  0
    4.6783   -1.2019    0.0000 N   0  0  0  0  0  0  0  0  0  0  0  0
    6.2619   -0.3972    0.0000 N   0  0  0  0  0  0  0  0  0  0  0  0
    2.8660    0.6028    0.0000 N   0  0  0  0  0  0  0  0  0  0  0  0
    2.0000   -0.8972    0.0000 N   0  0  0  0  0  0  0  0  0  0  0  0
    6.7619   -1.2632    0.0000 N   0  0  0  0  0  0  0  0  0  0  0  0
    2.8660   -2.3972    0.0000 N   0  0  0  0  0  0  0  0  0  0  0  0
    5.9405    1.6654    0.0000 C   0  0  3  0  0  0  0  0  0  0  0  0
    4.9889    1.3581    0.0000 C   0  0  3  0  0  0  0  0  0  0  0  0
    5.9422    2.6654    0.0000 C   0  0  3  0  0  0  0  0  0  0  0  0
    4.9917    2.9761    0.0000 C   0  0  3  0  0  0  0  0  0  0  0  0
    4.6844    3.9277    0.0000 C   0  0  0  0  0  0  0  0  0  0  0  0
    3.7320    0.1028    0.0000 C   0  0  0  0  0  0  0  0  0  0  0  0
    5.2619   -0.3972    0.0000 C   0  0  0  0  0  0  0  0  0  0  0  0
    3.7320   -0.8972    0.0000 C   0  0  0  0  0  0  0  0  0  0  0  0
    2.8660   -1.3972    0.0000 C   0  0  0  0  0  0  0  0  0  0  0  0
    2.0000    0.1028    0.0000 C   0  0  0  0  0  0  0  0  0  0  0  0
    7.7619   -1.2632    0.0000 C   0  0  0  0  0  0  0  0  0  0  0  0
    8.2619   -2.1292    0.0000 C   0  0  0  0  0  0  0  0  0  0  0  0
    7.7619   -2.9952    0.0000 C   0  0  0  0  0  0  0  0  0  0  0  0
    9.2619   -2.1292    0.0000 C   0  0  0  0  0  0  0  0  0  0  0  0
    8.2619   -3.8613    0.0000 C   0  0  0  0  0  0  0  0  0  0  0  0
    9.7619   -2.9952    0.0000 C   0  0  0  0  0  0  0  0  0  0  0  0
    9.2619   -3.8613    0.0000 C   0  0  0  0  0  0  0  0  0  0  0  0
    5.8061    0.8262    0.0000 H   0  0  0  0  0  0  0  0  0  0  0  0
    5.5889    0.7560    0.0000 H   0  0  0  0  0  0  0  0  0  0  0  0
    6.6989    2.2782    0.0000 H   0  0  0  0  0  0  0  0  0  0  0  0
    4.1524    3.1105    0.0000 H   0  0  0  0  0  0  0  0  0  0  0  0
    5.2985    4.0129    0.0000 H   0  0  0  0  0  0  0  0  0  0  0  0
    4.7071    4.5473    0.0000 H   0  0  0  0  0  0  0  0  0  0  0  0
    7.3154    1.3275    0.0000 H   0  0  0  0  0  0  0  0  0  0  0  0
    6.6886    3.8686    0.0000 H   0  0  0  0  0  0  0  0  0  0  0  0
    3.5160    4.7273    0.0000 H   0  0  0  0  0  0  0  0  0  0  0  0
    6.5719    0.1398    0.0000 H   0  0  0  0  0  0  0  0  0  0  0  0
    1.4631    0.4128    0.0000 H   0  0  0  0  0  0  0  0  0  0  0  0
    2.3291   -2.7072    0.0000 H   0  0  0  0  0  0  0  0  0  0  0  0
    3.4030   -2.7072    0.0000 H   0  0  0  0  0  0  0  0  0  0  0  0
    8.0719   -0.7263    0.0000 H   0  0  0  0  0  0  0  0  0  0  0  0
    7.1419   -2.9952    0.0000 H   0  0  0  0  0  0  0  0  0  0  0  0
    9.5719   -1.5923    0.0000 H   0  0  0  0  0  0  0  0  0  0  0  0
    7.9519   -4.3982    0.0000 H   0  0  0  0  0  0  0  0  0  0  0  0
   10.3819   -2.9952    0.0000 H   0  0  0  0  0  0  0  0  0  0  0  0
  1 29  1  0  0  0  0
  2 14  1  0  0  0  0
  2 16  1  0  0  0  0
  3 13  1  0  0  0  0
  3 36  1  0  0  0  0
  4 15  1  0  0  0  0
  4 37  1  0  0  0  0
  5 17  1  0  0  0  0
  5 38  1  0  0  0  0
  6 14  1  0  0  0  0
  6 18  1  0  0  0  0
  6 19  1  0  0  0  0
  7 19  2  0  0  0  0
  7 20  1  0  0  0  0
  8 11  1  0  0  0  0
  8 19  1  0  0  0  0
  8 39  1  0  0  0  0
  9 18  1  0  0  0  0
  9 22  2  0  0  0  0
 10 21  2  0  0  0  0
 10 22  1  0  0  0  0
 11 23  2  0  0  0  0
 12 21  1  0  0  0  0
 12 41  1  0  0  0  0
 12 42  1  0  0  0  0
 13 14  1  0  0  0  0
 13 15  1  0  0  0  0
 13 30  1  0  0  0  0
 14 31  1  0  0  0  0
 15 16  1  0  0  0  0
 15 32  1  0  0  0  0
 16 17  1  0  0  0  0
 16 33  1  0  0  0  0
 17 34  1  0  0  0  0
 17 35  1  0  0  0  0
 18 20  2  0  0  0  0
 20 21  1  0  0  0  0
 22 40  1  0  0  0  0
 23 24  1  0  0  0  0
 23 43  1  0  0  0  0
 24 25  2  0  0  0  0
 24 26  1  0  0  0  0
 25 27  1  0  0  0  0
 25 44  1  0  0  0  0
 26 28  2  0  0  0  0
 26 45  1  0  0  0  0
 27 29  2  0  0  0  0
 27 46  1  0  0  0  0
 28 29  1  0  0  0  0
 28 47  1  0  0  0  0
M  END
> <PUBCHEM_COMPOUND_CID>
9641375

> <PUBCHEM_COMPOUND_CANONICALIZED>
1

> <PUBCHEM_CACTVS_COMPLEXITY>
582

> <PUBCHEM_CACTVS_HBOND_ACCEPTOR>
10

> <PUBCHEM_CACTVS_HBOND_DONOR>
5

> <PUBCHEM_CACTVS_ROTATABLE_BOND>
5

> <PUBCHEM_CACTVS_SUBSKEYS>
AAADceB7uAAEAAAAAAAAAAAAAAAAAWJAAAA8QAAAAAAAAFgB/AAAHgIYCAAADB7hnyY18L9uFgCgAzZjZACSgC0xFaAN2CAoVpiLeKLB21CeZAgviALbiCfwsAIOBAAAAAAAAAAIAAAAAAAAAAAAAAAAAA==

> <PUBCHEM_IUPAC_OPENEYE_NAME>
2-[6-amino-8-[(2E)-2-[(4-chlorophenyl)methylene]hydrazino]purin-9-yl]-5-(hydroxymethyl)tetrahydrofuran-3,4-diol

> <PUBCHEM_IUPAC_CAS_NAME>
2-[6-amino-8-[(2E)-2-[(4-chlorophenyl)methylidene]hydrazinyl]-9-purinyl]-5-(hydroxymethyl)oxolane-3,4-diol

> <PUBCHEM_IUPAC_NAME>
2-[6-amino-8-[(2E)-2-[(4-chlorophenyl)methylidene]hydrazinyl]purin-9-yl]-5-(hydroxymethyl)oxolane-3,4-diol

> <PUBCHEM_IUPAC_SYSTEMATIC_NAME>
2-[6-azanyl-8-[(2E)-2-[(4-chlorophenyl)methylidene]hydrazinyl]purin-9-yl]-5-(hydroxymethyl)oxolane-3,4-diol

> <PUBCHEM_IUPAC_TRADITIONAL_NAME>
2-[6-amino-8-[(N'E)-N'-(4-chlorobenzylidene)hydrazino]purin-9-yl]-5-methylol-tetrahydrofuran-3,4-diol

> <PUBCHEM_IUPAC_INCHI>
InChI=1S/C17H18ClN7O4/c18-9-3-1-8(2-4-9)5-22-24-17-23-11-14(19)20-7-21-15(11)25(17)16-13(28)12(27)10(6-26)29-16/h1-5,7,10,12-13,16,26-28H,6H2,(H,23,24)(H2,19,20,21)/b22-5+

> <PUBCHEM_IUPAC_INCHIKEY>
QXZWHITXPDXLPY-RREIPUBJSA-N

> <PUBCHEM_XLOGP3>
1.5

> <PUBCHEM_EXACT_MASS>
419.11088

> <PUBCHEM_MOLECULAR_FORMULA>
C17H18ClN7O4

> <PUBCHEM_MOLECULAR_WEIGHT>
419.82232

> <PUBCHEM_OPENEYE_CAN_SMILES>
C1=CC(=CC=C1C=NNC2=NC3=C(N2C4C(C(C(O4)CO)O)O)N=CN=C3N)Cl

> <PUBCHEM_OPENEYE_ISO_SMILES>
C1=CC(=CC=C1/C=N/NC2=NC3=C(N2C4C(C(C(O4)CO)O)O)N=CN=C3N)Cl

> <PUBCHEM_CACTVS_TPSA>
164

> <PUBCHEM_MONOISOTOPIC_WEIGHT>
419.11088

> <PUBCHEM_TOTAL_CHARGE>
0

> <PUBCHEM_HEAVY_ATOM_COUNT>
29

> <PUBCHEM_ATOM_DEF_STEREO_COUNT>
0

> <PUBCHEM_ATOM_UDEF_STEREO_COUNT>
4

> <PUBCHEM_BOND_DEF_STEREO_COUNT>
1

> <PUBCHEM_BOND_UDEF_STEREO_COUNT>
0

> <PUBCHEM_ISOTOPIC_ATOM_COUNT>
0

> <PUBCHEM_COMPONENT_COUNT>
1

> <PUBCHEM_CACTVS_TAUTO_COUNT>
6

> <PUBCHEM_COORDINATE_TYPE>
1
5
255

> <PUBCHEM_BONDANNOTATIONS>
10  21  8
10  22  8
13  30  3
14  31  3
15  32  3
16  33  3
18  20  8
20  21  8
24  25  8
24  26  8
25  27  8
26  28  8
27  29  8
28  29  8
6  18  8
6  19  8
7  19  8
7  20  8
9  18  8
9  22  8

$$$$
