62489977
  -OEChem-10231221292D

 24 25  0     0  0  0  0  0  0999 V2000
    2.5369    0.0670    0.0000 N   0  0  0  0  0  0  0  0  0  0  0  0
    4.2690    1.0670    0.0000 C   0  0  0  0  0  0  0  0  0  0  0  0
    4.7690    1.9330    0.0000 C   0  0  0  0  0  0  0  0  0  0  0  0
    3.7690    1.9330    0.0000 C   0  0  0  0  0  0  0  0  0  0  0  0
    4.2690    0.0670    0.0000 C   0  0  0  0  0  0  0  0  0  0  0  0
    3.4030   -0.4330    0.0000 C   0  0  0  0  0  0  0  0  0  0  0  0
    5.1350   -0.4330    0.0000 C   0  0  0  0  0  0  0  0  0  0  0  0
    5.1350   -1.4330    0.0000 C   0  0  0  0  0  0  0  0  0  0  0  0
    3.4030   -1.4330    0.0000 C   0  0  0  0  0  0  0  0  0  0  0  0
    4.2690   -1.9330    0.0000 C   0  0  0  0  0  0  0  0  0  0  0  0
    6.0010   -1.9330    0.0000 C   0  0  0  0  0  0  0  0  0  0  0  0
    4.8679    0.9065    0.0000 H   0  0  0  0  0  0  0  0  0  0  0  0
    5.3516    1.7210    0.0000 H   0  0  0  0  0  0  0  0  0  0  0  0
    4.8766    2.5436    0.0000 H   0  0  0  0  0  0  0  0  0  0  0  0
    3.6613    2.5436    0.0000 H   0  0  0  0  0  0  0  0  0  0  0  0
    3.1864    1.7210    0.0000 H   0  0  0  0  0  0  0  0  0  0  0  0
    5.6720   -0.1230    0.0000 H   0  0  0  0  0  0  0  0  0  0  0  0
    2.8660   -1.7430    0.0000 H   0  0  0  0  0  0  0  0  0  0  0  0
    4.2690   -2.5530    0.0000 H   0  0  0  0  0  0  0  0  0  0  0  0
    2.0000   -0.2430    0.0000 H   0  0  0  0  0  0  0  0  0  0  0  0
    2.5369    0.6870    0.0000 H   0  0  0  0  0  0  0  0  0  0  0  0
    5.6910   -2.4700    0.0000 H   0  0  0  0  0  0  0  0  0  0  0  0
    6.5380   -2.2430    0.0000 H   0  0  0  0  0  0  0  0  0  0  0  0
    6.3110   -1.3961    0.0000 H   0  0  0  0  0  0  0  0  0  0  0  0
  1  6  1  0  0  0  0
  1 20  1  0  0  0  0
  1 21  1  0  0  0  0
  2  3  1  0  0  0  0
  2  4  1  0  0  0  0
  2  5  1  0  0  0  0
  2 12  1  0  0  0  0
  3  4  1  0  0  0  0
  3 13  1  0  0  0  0
  3 14  1  0  0  0  0
  4 15  1  0  0  0  0
  4 16  1  0  0  0  0
  5  6  2  0  0  0  0
  5  7  1  0  0  0  0
  6  9  1  0  0  0  0
  7  8  2  0  0  0  0
  7 17  1  0  0  0  0
  8 10  1  0  0  0  0
  8 11  1  0  0  0  0
  9 10  2  0  0  0  0
  9 18  1  0  0  0  0
 10 19  1  0  0  0  0
 11 22  1  0  0  0  0
 11 23  1  0  0  0  0
 11 24  1  0  0  0  0
M  END
> <PUBCHEM_COMPOUND_CID>
62489977

> <PUBCHEM_COMPOUND_CANONICALIZED>
1

> <PUBCHEM_CACTVS_COMPLEXITY>
140

> <PUBCHEM_CACTVS_HBOND_ACCEPTOR>
1

> <PUBCHEM_CACTVS_HBOND_DONOR>
1

> <PUBCHEM_CACTVS_ROTATABLE_BOND>
1

> <PUBCHEM_CACTVS_SUBSKEYS>
AAADccByAAAAAAAAAAAAAAAAGAAAAAAAAAAwAAAAAAAAAAABAAAAHAAQAAAADQiBGAAywIBAAACAAiRCQACCAAAgAgAIiAAAZIgIICKAkZGAIABgkAAIyAcQgMAOiAACAAACAAAQAAQAAAQAAAAAAAAAAA==

> <PUBCHEM_IUPAC_OPENEYE_NAME>
2-cyclopropyl-4-methyl-aniline

> <PUBCHEM_IUPAC_CAS_NAME>
2-cyclopropyl-4-methylaniline

> <PUBCHEM_IUPAC_NAME>
2-cyclopropyl-4-methylaniline

> <PUBCHEM_IUPAC_SYSTEMATIC_NAME>
2-cyclopropyl-4-methyl-aniline

> <PUBCHEM_IUPAC_TRADITIONAL_NAME>
(2-cyclopropyl-4-methyl-phenyl)amine

> <PUBCHEM_IUPAC_INCHI>
InChI=1S/C10H13N/c1-7-2-5-10(11)9(6-7)8-3-4-8/h2,5-6,8H,3-4,11H2,1H3

> <PUBCHEM_IUPAC_INCHIKEY>
BMVJHYOOJJLVPJ-UHFFFAOYSA-N

> <PUBCHEM_XLOGP3>
2.2

> <PUBCHEM_EXACT_MASS>
147.104799

> <PUBCHEM_MOLECULAR_FORMULA>
C10H13N

> <PUBCHEM_MOLECULAR_WEIGHT>
147.21692

> <PUBCHEM_OPENEYE_CAN_SMILES>
CC1=CC(=C(C=C1)N)C2CC2

> <PUBCHEM_OPENEYE_ISO_SMILES>
CC1=CC(=C(C=C1)N)C2CC2

> <PUBCHEM_CACTVS_TPSA>
26

> <PUBCHEM_MONOISOTOPIC_WEIGHT>
147.104799

> <PUBCHEM_TOTAL_CHARGE>
0

> <PUBCHEM_HEAVY_ATOM_COUNT>
11

> <PUBCHEM_ATOM_DEF_STEREO_COUNT>
0

> <PUBCHEM_ATOM_UDEF_STEREO_COUNT>
0

> <PUBCHEM_BOND_DEF_STEREO_COUNT>
0

> <PUBCHEM_BOND_UDEF_STEREO_COUNT>
0

> <PUBCHEM_ISOTOPIC_ATOM_COUNT>
0

> <PUBCHEM_COMPONENT_COUNT>
1

> <PUBCHEM_CACTVS_TAUTO_COUNT>
1

> <PUBCHEM_COORDINATE_TYPE>
1
5
255

> <PUBCHEM_BONDANNOTATIONS>
5  6  8
5  7  8
6  9  8
7  8  8
8  10  8
9  10  8

$$$$
62489978
  -OEChem-10231221292D

 24 25  0     0  0  0  0  0  0999 V2000
    3.7320   -2.2780    0.0000 N   0  0  0  0  0  0  0  0  0  0  0  0
    3.7320    1.7220    0.0000 C   0  0  0  0  0  0  0  0  0  0  0  0
    4.2320    2.5880    0.0000 C   0  0  0  0  0  0  0  0  0  0  0  0
    3.2320    2.5880    0.0000 C   0  0  0  0  0  0  0  0  0  0  0  0
    3.7320    0.7220    0.0000 C   0  0  0  0  0  0  0  0  0  0  0  0
    2.8660    0.2220    0.0000 C   0  0  0  0  0  0  0  0  0  0  0  0
    4.5981    0.2220    0.0000 C   0  0  0  0  0  0  0  0  0  0  0  0
    2.8660   -0.7780    0.0000 C   0  0  0  0  0  0  0  0  0  0  0  0
    4.5981   -0.7780    0.0000 C   0  0  0  0  0  0  0  0  0  0  0  0
    3.7320   -1.2780    0.0000 C   0  0  0  0  0  0  0  0  0  0  0  0
    2.0000   -1.2780    0.0000 C   0  0  0  0  0  0  0  0  0  0  0  0
    4.3309    1.5615    0.0000 H   0  0  0  0  0  0  0  0  0  0  0  0
    4.8147    2.3760    0.0000 H   0  0  0  0  0  0  0  0  0  0  0  0
    4.3397    3.1986    0.0000 H   0  0  0  0  0  0  0  0  0  0  0  0
    3.1244    3.1986    0.0000 H   0  0  0  0  0  0  0  0  0  0  0  0
    2.6494    2.3760    0.0000 H   0  0  0  0  0  0  0  0  0  0  0  0
    2.3291    0.5320    0.0000 H   0  0  0  0  0  0  0  0  0  0  0  0
    5.1350    0.5320    0.0000 H   0  0  0  0  0  0  0  0  0  0  0  0
    5.1350   -1.0880    0.0000 H   0  0  0  0  0  0  0  0  0  0  0  0
    1.6900   -0.7411    0.0000 H   0  0  0  0  0  0  0  0  0  0  0  0
    1.4631   -1.5880    0.0000 H   0  0  0  0  0  0  0  0  0  0  0  0
    2.3100   -1.8150    0.0000 H   0  0  0  0  0  0  0  0  0  0  0  0
    4.2690   -2.5880    0.0000 H   0  0  0  0  0  0  0  0  0  0  0  0
    3.1951   -2.5880    0.0000 H   0  0  0  0  0  0  0  0  0  0  0  0
  1 10  1  0  0  0  0
  1 23  1  0  0  0  0
  1 24  1  0  0  0  0
  2  3  1  0  0  0  0
  2  4  1  0  0  0  0
  2  5  1  0  0  0  0
  2 12  1  0  0  0  0
  3  4  1  0  0  0  0
  3 13  1  0  0  0  0
  3 14  1  0  0  0  0
  4 15  1  0  0  0  0
  4 16  1  0  0  0  0
  5  6  2  0  0  0  0
  5  7  1  0  0  0  0
  6  8  1  0  0  0  0
  6 17  1  0  0  0  0
  7  9  2  0  0  0  0
  7 18  1  0  0  0  0
  8 10  2  0  0  0  0
  8 11  1  0  0  0  0
  9 10  1  0  0  0  0
  9 19  1  0  0  0  0
 11 20  1  0  0  0  0
 11 21  1  0  0  0  0
 11 22  1  0  0  0  0
M  END
> <PUBCHEM_COMPOUND_CID>
62489978

> <PUBCHEM_COMPOUND_CANONICALIZED>
1

> <PUBCHEM_CACTVS_COMPLEXITY>
140

> <PUBCHEM_CACTVS_HBOND_ACCEPTOR>
1

> <PUBCHEM_CACTVS_HBOND_DONOR>
1

> <PUBCHEM_CACTVS_ROTATABLE_BOND>
1

> <PUBCHEM_CACTVS_SUBSKEYS>
AAADccByAAAAAAAAAAAAAAAAGAAAAAAAAAAwAAAAAAAAAAABAAAAHAAQAAAADQiBGAAywIBAAACAAiRCQACCAAAgAgAIiAAAZIgIICKAkZGAIABgkAAIyAcQgMAOiAACAAACAAAQAAQAAAQAAAAAAAAAAA==

> <PUBCHEM_IUPAC_OPENEYE_NAME>
4-cyclopropyl-2-methyl-aniline

> <PUBCHEM_IUPAC_CAS_NAME>
4-cyclopropyl-2-methylaniline

> <PUBCHEM_IUPAC_NAME>
4-cyclopropyl-2-methylaniline

> <PUBCHEM_IUPAC_SYSTEMATIC_NAME>
4-cyclopropyl-2-methyl-aniline

> <PUBCHEM_IUPAC_TRADITIONAL_NAME>
(4-cyclopropyl-2-methyl-phenyl)amine

> <PUBCHEM_IUPAC_INCHI>
InChI=1S/C10H13N/c1-7-6-9(8-2-3-8)4-5-10(7)11/h4-6,8H,2-3,11H2,1H3

> <PUBCHEM_IUPAC_INCHIKEY>
LPZKXYJNQSIDLU-UHFFFAOYSA-N

> <PUBCHEM_XLOGP3>
2.2

> <PUBCHEM_EXACT_MASS>
147.104799

> <PUBCHEM_MOLECULAR_FORMULA>
C10H13N

> <PUBCHEM_MOLECULAR_WEIGHT>
147.21692

> <PUBCHEM_OPENEYE_CAN_SMILES>
CC1=C(C=CC(=C1)C2CC2)N

> <PUBCHEM_OPENEYE_ISO_SMILES>
CC1=C(C=CC(=C1)C2CC2)N

> <PUBCHEM_CACTVS_TPSA>
26

> <PUBCHEM_MONOISOTOPIC_WEIGHT>
147.104799

> <PUBCHEM_TOTAL_CHARGE>
0

> <PUBCHEM_HEAVY_ATOM_COUNT>
11

> <PUBCHEM_ATOM_DEF_STEREO_COUNT>
0

> <PUBCHEM_ATOM_UDEF_STEREO_COUNT>
0

> <PUBCHEM_BOND_DEF_STEREO_COUNT>
0

> <PUBCHEM_BOND_UDEF_STEREO_COUNT>
0

> <PUBCHEM_ISOTOPIC_ATOM_COUNT>
0

> <PUBCHEM_COMPONENT_COUNT>
1

> <PUBCHEM_CACTVS_TAUTO_COUNT>
1

> <PUBCHEM_COORDINATE_TYPE>
1
5
255

> <PUBCHEM_BONDANNOTATIONS>
5  6  8
5  7  8
6  8  8
7  9  8
8  10  8
9  10  8

$$$$
