65126633
  -OEChem-11301218252D

 29 30  0     0  0  0  0  0  0999 V2000
    8.0622    3.2500    0.0000 Br  0  0  0  0  0  0  0  0  0  0  0  0
    2.0000   -3.2500    0.0000 Cl  0  0  0  0  0  0  0  0  0  0  0  0
    4.5981    0.2500    0.0000 O   0  0  0  0  0  0  0  0  0  0  0  0
    4.5981    1.2500    0.0000 C   0  0  0  0  0  0  0  0  0  0  0  0
    3.7320   -0.2500    0.0000 C   0  0  0  0  0  0  0  0  0  0  0  0
    5.4641    1.7500    0.0000 C   0  0  0  0  0  0  0  0  0  0  0  0
    3.7320   -1.2500    0.0000 C   0  0  0  0  0  0  0  0  0  0  0  0
    6.3301    1.2500    0.0000 C   0  0  0  0  0  0  0  0  0  0  0  0
    5.4641    2.7500    0.0000 C   0  0  0  0  0  0  0  0  0  0  0  0
    2.8660   -1.7500    0.0000 C   0  0  0  0  0  0  0  0  0  0  0  0
    4.5981   -1.7500    0.0000 C   0  0  0  0  0  0  0  0  0  0  0  0
    7.1962    1.7500    0.0000 C   0  0  0  0  0  0  0  0  0  0  0  0
    6.3301    3.2500    0.0000 C   0  0  0  0  0  0  0  0  0  0  0  0
    2.8660   -2.7500    0.0000 C   0  0  0  0  0  0  0  0  0  0  0  0
    4.5981   -2.7500    0.0000 C   0  0  0  0  0  0  0  0  0  0  0  0
    7.1962    2.7500    0.0000 C   0  0  0  0  0  0  0  0  0  0  0  0
    3.7320   -3.2500    0.0000 C   0  0  0  0  0  0  0  0  0  0  0  0
    4.3860    1.8326    0.0000 H   0  0  0  0  0  0  0  0  0  0  0  0
    3.9875    1.1423    0.0000 H   0  0  0  0  0  0  0  0  0  0  0  0
    3.5200    0.3326    0.0000 H   0  0  0  0  0  0  0  0  0  0  0  0
    3.1215   -0.3577    0.0000 H   0  0  0  0  0  0  0  0  0  0  0  0
    6.3301    0.6300    0.0000 H   0  0  0  0  0  0  0  0  0  0  0  0
    4.9272    3.0600    0.0000 H   0  0  0  0  0  0  0  0  0  0  0  0
    2.3291   -1.4400    0.0000 H   0  0  0  0  0  0  0  0  0  0  0  0
    5.1350   -1.4400    0.0000 H   0  0  0  0  0  0  0  0  0  0  0  0
    7.7331    1.4400    0.0000 H   0  0  0  0  0  0  0  0  0  0  0  0
    6.3301    3.8700    0.0000 H   0  0  0  0  0  0  0  0  0  0  0  0
    5.1350   -3.0600    0.0000 H   0  0  0  0  0  0  0  0  0  0  0  0
    3.7320   -3.8700    0.0000 H   0  0  0  0  0  0  0  0  0  0  0  0
  1 16  1  0  0  0  0
  2 14  1  0  0  0  0
  3  4  1  0  0  0  0
  3  5  1  0  0  0  0
  4  6  1  0  0  0  0
  4 18  1  0  0  0  0
  4 19  1  0  0  0  0
  5  7  1  0  0  0  0
  5 20  1  0  0  0  0
  5 21  1  0  0  0  0
  6  8  2  0  0  0  0
  6  9  1  0  0  0  0
  7 10  2  0  0  0  0
  7 11  1  0  0  0  0
  8 12  1  0  0  0  0
  8 22  1  0  0  0  0
  9 13  2  0  0  0  0
  9 23  1  0  0  0  0
 10 14  1  0  0  0  0
 10 24  1  0  0  0  0
 11 15  2  0  0  0  0
 11 25  1  0  0  0  0
 12 16  2  0  0  0  0
 12 26  1  0  0  0  0
 13 16  1  0  0  0  0
 13 27  1  0  0  0  0
 14 17  2  0  0  0  0
 15 17  1  0  0  0  0
 15 28  1  0  0  0  0
 17 29  1  0  0  0  0
M  END
> <PUBCHEM_COMPOUND_CID>
65126633

> <PUBCHEM_COMPOUND_CANONICALIZED>
1

> <PUBCHEM_CACTVS_COMPLEXITY>
216

> <PUBCHEM_CACTVS_HBOND_ACCEPTOR>
1

> <PUBCHEM_CACTVS_HBOND_DONOR>
0

> <PUBCHEM_CACTVS_ROTATABLE_BOND>
4

> <PUBCHEM_CACTVS_SUBSKEYS>
AAADccBwIAAEEAAAAAAAAAAAAAAAAAAAAAAwYAAAAAAAAAABQAAAGgJAAAABrAKgmCIwAIAABACAAiBCAAACAAAgBQQIiAAACqgIJiKBMxiCMAAkwAEIqheAwCAOAgAAIAAAAAAEAABAAAAAAAAAAAAAAA==

> <PUBCHEM_IUPAC_OPENEYE_NAME>
1-bromo-4-[(3-chlorophenyl)methoxymethyl]benzene

> <PUBCHEM_IUPAC_CAS_NAME>
1-bromo-4-[(3-chlorophenyl)methoxymethyl]benzene

> <PUBCHEM_IUPAC_NAME>
1-bromo-4-[(3-chlorophenyl)methoxymethyl]benzene

> <PUBCHEM_IUPAC_SYSTEMATIC_NAME>
1-bromanyl-4-[(3-chlorophenyl)methoxymethyl]benzene

> <PUBCHEM_IUPAC_TRADITIONAL_NAME>
1-bromo-4-[(3-chlorobenzyl)oxymethyl]benzene

> <PUBCHEM_IUPAC_INCHI>
InChI=1S/C14H12BrClO/c15-13-6-4-11(5-7-13)9-17-10-12-2-1-3-14(16)8-12/h1-8H,9-10H2

> <PUBCHEM_IUPAC_INCHIKEY>
QSHWOUPWAJCBTP-UHFFFAOYSA-N

> <PUBCHEM_XLOGP3>
4.7

> <PUBCHEM_EXACT_MASS>
309.976005

> <PUBCHEM_MOLECULAR_FORMULA>
C14H12BrClO

> <PUBCHEM_MOLECULAR_WEIGHT>
311.60148

> <PUBCHEM_OPENEYE_CAN_SMILES>
C1=CC(=CC(=C1)Cl)COCC2=CC=C(C=C2)Br

> <PUBCHEM_OPENEYE_ISO_SMILES>
C1=CC(=CC(=C1)Cl)COCC2=CC=C(C=C2)Br

> <PUBCHEM_CACTVS_TPSA>
9.2

> <PUBCHEM_MONOISOTOPIC_WEIGHT>
309.976005

> <PUBCHEM_TOTAL_CHARGE>
0

> <PUBCHEM_HEAVY_ATOM_COUNT>
17

> <PUBCHEM_ATOM_DEF_STEREO_COUNT>
0

> <PUBCHEM_ATOM_UDEF_STEREO_COUNT>
0

> <PUBCHEM_BOND_DEF_STEREO_COUNT>
0

> <PUBCHEM_BOND_UDEF_STEREO_COUNT>
0

> <PUBCHEM_ISOTOPIC_ATOM_COUNT>
0

> <PUBCHEM_COMPONENT_COUNT>
1

> <PUBCHEM_CACTVS_TAUTO_COUNT>
1

> <PUBCHEM_COORDINATE_TYPE>
1
5
255

> <PUBCHEM_BONDANNOTATIONS>
10  14  8
11  15  8
12  16  8
13  16  8
14  17  8
15  17  8
6  8  8
6  9  8
7  10  8
7  11  8
8  12  8
9  13  8

$$$$
65146521
  -OEChem-11301218262D

 35 37  0     1  0  0  0  0  0999 V2000
    4.3660   -1.9503    0.0000 O   0  0  0  0  0  0  0  0  0  0  0  0
    3.0000   -1.5843    0.0000 C   0  0  0  0  0  0  0  0  0  0  0  0
    2.0000   -1.5843    0.0000 C   0  0  0  0  0  0  0  0  0  0  0  0
    2.5000   -2.4503    0.0000 C   0  0  0  0  0  0  0  0  0  0  0  0
    3.8660   -1.0843    0.0000 C   0  0  3  0  0  0  0  0  0  0  0  0
    4.7320   -0.5843    0.0000 C   0  0  0  0  0  0  0  0  0  0  0  0
    3.3660   -0.2183    0.0000 C   0  0  0  0  0  0  0  0  0  0  0  0
    4.7320    0.4157    0.0000 C   0  0  0  0  0  0  0  0  0  0  0  0
    5.5981    0.9157    0.0000 C   0  0  0  0  0  0  0  0  0  0  0  0
    3.8660    0.9157    0.0000 C   0  0  0  0  0  0  0  0  0  0  0  0
    5.5981    1.9157    0.0000 C   0  0  0  0  0  0  0  0  0  0  0  0
    3.8660    1.9157    0.0000 C   0  0  0  0  0  0  0  0  0  0  0  0
    6.4920    0.3810    0.0000 C   0  0  0  0  0  0  0  0  0  0  0  0
    4.7320    2.4157    0.0000 C   0  0  0  0  0  0  0  0  0  0  0  0
    6.4920    2.4503    0.0000 C   0  0  0  0  0  0  0  0  0  0  0  0
    7.3981    0.8949    0.0000 C   0  0  0  0  0  0  0  0  0  0  0  0
    7.3981    1.9365    0.0000 C   0  0  0  0  0  0  0  0  0  0  0  0
    2.8395   -0.9854    0.0000 H   0  0  0  0  0  0  0  0  0  0  0  0
    2.0250   -2.8489    0.0000 H   0  0  0  0  0  0  0  0  0  0  0  0
    2.9750   -2.8489    0.0000 H   0  0  0  0  0  0  0  0  0  0  0  0
    1.8923   -0.9737    0.0000 H   0  0  0  0  0  0  0  0  0  0  0  0
    1.4174   -1.7964    0.0000 H   0  0  0  0  0  0  0  0  0  0  0  0
    4.9441   -1.1669    0.0000 H   0  0  0  0  0  0  0  0  0  0  0  0
    5.3426   -0.4767    0.0000 H   0  0  0  0  0  0  0  0  0  0  0  0
    3.9030    0.0917    0.0000 H   0  0  0  0  0  0  0  0  0  0  0  0
    3.0560    0.3186    0.0000 H   0  0  0  0  0  0  0  0  0  0  0  0
    2.8291   -0.5283    0.0000 H   0  0  0  0  0  0  0  0  0  0  0  0
    4.9860   -1.9503    0.0000 H   0  0  0  0  0  0  0  0  0  0  0  0
    3.3291    0.6057    0.0000 H   0  0  0  0  0  0  0  0  0  0  0  0
    6.4848   -0.2389    0.0000 H   0  0  0  0  0  0  0  0  0  0  0  0
    3.3291    2.2257    0.0000 H   0  0  0  0  0  0  0  0  0  0  0  0
    4.7320    3.0357    0.0000 H   0  0  0  0  0  0  0  0  0  0  0  0
    6.4848    3.0703    0.0000 H   0  0  0  0  0  0  0  0  0  0  0  0
    7.9338    0.5828    0.0000 H   0  0  0  0  0  0  0  0  0  0  0  0
    7.9338    2.2486    0.0000 H   0  0  0  0  0  0  0  0  0  0  0  0
  1  5  1  0  0  0  0
  1 28  1  0  0  0  0
  2  3  1  0  0  0  0
  2  4  1  0  0  0  0
  2  5  1  0  0  0  0
  2 18  1  0  0  0  0
  3  4  1  0  0  0  0
  3 21  1  0  0  0  0
  3 22  1  0  0  0  0
  4 19  1  0  0  0  0
  4 20  1  0  0  0  0
  5  6  1  0  0  0  0
  5  7  1  0  0  0  0
  6  8  1  0  0  0  0
  6 23  1  0  0  0  0
  6 24  1  0  0  0  0
  7 25  1  0  0  0  0
  7 26  1  0  0  0  0
  7 27  1  0  0  0  0
  8  9  1  0  0  0  0
  8 10  2  0  0  0  0
  9 11  1  0  0  0  0
  9 13  2  0  0  0  0
 10 12  1  0  0  0  0
 10 29  1  0  0  0  0
 11 14  1  0  0  0  0
 11 15  2  0  0  0  0
 12 14  2  0  0  0  0
 12 31  1  0  0  0  0
 13 16  1  0  0  0  0
 13 30  1  0  0  0  0
 14 32  1  0  0  0  0
 15 17  1  0  0  0  0
 15 33  1  0  0  0  0
 16 17  2  0  0  0  0
 16 34  1  0  0  0  0
 17 35  1  0  0  0  0
M  END
> <PUBCHEM_COMPOUND_CID>
65146521

> <PUBCHEM_COMPOUND_CANONICALIZED>
1

> <PUBCHEM_CACTVS_COMPLEXITY>
271

> <PUBCHEM_CACTVS_HBOND_ACCEPTOR>
1

> <PUBCHEM_CACTVS_HBOND_DONOR>
1

> <PUBCHEM_CACTVS_ROTATABLE_BOND>
3

> <PUBCHEM_CACTVS_SUBSKEYS>
AAADceB4IAAAAAAAAAAAAAAAGAAAAAAAAAAwYAAAAAAAAADBUAAAGgAACAAADUSAmAAyAMAAAgCAAiBCAAACAAAgAAAIiAAAAIgIICKAERCAYAAkwAEIiAeAwPAOgAACAAAQAAAAAAQAACAAAAAAAAAAAA==

> <PUBCHEM_IUPAC_OPENEYE_NAME>
2-cyclopropyl-1-(1-naphthyl)propan-2-ol

> <PUBCHEM_IUPAC_CAS_NAME>
2-cyclopropyl-1-(1-naphthalenyl)-2-propanol

> <PUBCHEM_IUPAC_NAME>
2-cyclopropyl-1-naphthalen-1-ylpropan-2-ol

> <PUBCHEM_IUPAC_SYSTEMATIC_NAME>
2-cyclopropyl-1-naphthalen-1-yl-propan-2-ol

> <PUBCHEM_IUPAC_TRADITIONAL_NAME>
2-cyclopropyl-1-(1-naphthyl)propan-2-ol

> <PUBCHEM_IUPAC_INCHI>
InChI=1S/C16H18O/c1-16(17,14-9-10-14)11-13-7-4-6-12-5-2-3-8-15(12)13/h2-8,14,17H,9-11H2,1H3

> <PUBCHEM_IUPAC_INCHIKEY>
MSTAWDWINNRSTL-UHFFFAOYSA-N

> <PUBCHEM_XLOGP3>
4.2

> <PUBCHEM_EXACT_MASS>
226.135765

> <PUBCHEM_MOLECULAR_FORMULA>
C16H18O

> <PUBCHEM_MOLECULAR_WEIGHT>
226.31352

> <PUBCHEM_OPENEYE_CAN_SMILES>
CC(CC1=CC=CC2=CC=CC=C21)(C3CC3)O

> <PUBCHEM_OPENEYE_ISO_SMILES>
CC(CC1=CC=CC2=CC=CC=C21)(C3CC3)O

> <PUBCHEM_CACTVS_TPSA>
20.2

> <PUBCHEM_MONOISOTOPIC_WEIGHT>
226.135765

> <PUBCHEM_TOTAL_CHARGE>
0

> <PUBCHEM_HEAVY_ATOM_COUNT>
17

> <PUBCHEM_ATOM_DEF_STEREO_COUNT>
0

> <PUBCHEM_ATOM_UDEF_STEREO_COUNT>
1

> <PUBCHEM_BOND_DEF_STEREO_COUNT>
0

> <PUBCHEM_BOND_UDEF_STEREO_COUNT>
0

> <PUBCHEM_ISOTOPIC_ATOM_COUNT>
0

> <PUBCHEM_COMPONENT_COUNT>
1

> <PUBCHEM_CACTVS_TAUTO_COUNT>
1

> <PUBCHEM_COORDINATE_TYPE>
1
5
255

> <PUBCHEM_BONDANNOTATIONS>
5  1  3
10  12  8
11  14  8
11  15  8
12  14  8
13  16  8
15  17  8
16  17  8
8  10  8
8  9  8
9  11  8
9  13  8

$$$$
65147700
  -OEChem-11301218262D

 35 37  0     0  0  0  0  0  0999 V2000
    4.3258   -1.7987    0.0000 O   0  0  0  0  0  0  0  0  0  0  0  0
    3.5827   -1.1295    0.0000 C   0  0  0  0  0  0  0  0  0  0  0  0
    3.0827   -0.2635    0.0000 C   0  0  0  0  0  0  0  0  0  0  0  0
    2.9136   -1.8727    0.0000 C   0  0  0  0  0  0  0  0  0  0  0  0
    2.1045   -0.4714    0.0000 C   0  0  0  0  0  0  0  0  0  0  0  0
    2.0000   -1.4660    0.0000 C   0  0  0  0  0  0  0  0  0  0  0  0
    4.4487   -0.6295    0.0000 C   0  0  0  0  0  0  0  0  0  0  0  0
    4.4487    0.3705    0.0000 C   0  0  0  0  0  0  0  0  0  0  0  0
    5.3147    0.8705    0.0000 C   0  0  0  0  0  0  0  0  0  0  0  0
    3.5827    0.8705    0.0000 C   0  0  0  0  0  0  0  0  0  0  0  0
    5.3147    1.8705    0.0000 C   0  0  0  0  0  0  0  0  0  0  0  0
    6.2087    0.3358    0.0000 C   0  0  0  0  0  0  0  0  0  0  0  0
    3.5827    1.8705    0.0000 C   0  0  0  0  0  0  0  0  0  0  0  0
    4.4487    2.3705    0.0000 C   0  0  0  0  0  0  0  0  0  0  0  0
    6.2087    2.4051    0.0000 C   0  0  0  0  0  0  0  0  0  0  0  0
    7.1147    0.8496    0.0000 C   0  0  0  0  0  0  0  0  0  0  0  0
    7.1147    1.8913    0.0000 C   0  0  0  0  0  0  0  0  0  0  0  0
    3.6491   -0.0113    0.0000 H   0  0  0  0  0  0  0  0  0  0  0  0
    2.8911    0.3261    0.0000 H   0  0  0  0  0  0  0  0  0  0  0  0
    2.6035   -2.4096    0.0000 H   0  0  0  0  0  0  0  0  0  0  0  0
    3.4151   -2.2371    0.0000 H   0  0  0  0  0  0  0  0  0  0  0  0
    2.0397    0.1452    0.0000 H   0  0  0  0  0  0  0  0  0  0  0  0
    1.4845   -0.4714    0.0000 H   0  0  0  0  0  0  0  0  0  0  0  0
    1.3936   -1.3370    0.0000 H   0  0  0  0  0  0  0  0  0  0  0  0
    1.8084   -2.0556    0.0000 H   0  0  0  0  0  0  0  0  0  0  0  0
    4.6608   -1.2122    0.0000 H   0  0  0  0  0  0  0  0  0  0  0  0
    5.0593   -0.5219    0.0000 H   0  0  0  0  0  0  0  0  0  0  0  0
    4.1969   -2.4051    0.0000 H   0  0  0  0  0  0  0  0  0  0  0  0
    3.0457    0.5605    0.0000 H   0  0  0  0  0  0  0  0  0  0  0  0
    6.2015   -0.2842    0.0000 H   0  0  0  0  0  0  0  0  0  0  0  0
    3.0457    2.1805    0.0000 H   0  0  0  0  0  0  0  0  0  0  0  0
    4.4487    2.9905    0.0000 H   0  0  0  0  0  0  0  0  0  0  0  0
    6.2015    3.0251    0.0000 H   0  0  0  0  0  0  0  0  0  0  0  0
    7.6505    0.5376    0.0000 H   0  0  0  0  0  0  0  0  0  0  0  0
    7.6505    2.2033    0.0000 H   0  0  0  0  0  0  0  0  0  0  0  0
  1  2  1  0  0  0  0
  1 28  1  0  0  0  0
  2  3  1  0  0  0  0
  2  4  1  0  0  0  0
  2  7  1  0  0  0  0
  3  5  1  0  0  0  0
  3 18  1  0  0  0  0
  3 19  1  0  0  0  0
  4  6  1  0  0  0  0
  4 20  1  0  0  0  0
  4 21  1  0  0  0  0
  5  6  1  0  0  0  0
  5 22  1  0  0  0  0
  5 23  1  0  0  0  0
  6 24  1  0  0  0  0
  6 25  1  0  0  0  0
  7  8  1  0  0  0  0
  7 26  1  0  0  0  0
  7 27  1  0  0  0  0
  8  9  1  0  0  0  0
  8 10  2  0  0  0  0
  9 11  1  0  0  0  0
  9 12  2  0  0  0  0
 10 13  1  0  0  0  0
 10 29  1  0  0  0  0
 11 14  1  0  0  0  0
 11 15  2  0  0  0  0
 12 16  1  0  0  0  0
 12 30  1  0  0  0  0
 13 14  2  0  0  0  0
 13 31  1  0  0  0  0
 14 32  1  0  0  0  0
 15 17  1  0  0  0  0
 15 33  1  0  0  0  0
 16 17  2  0  0  0  0
 16 34  1  0  0  0  0
 17 35  1  0  0  0  0
M  END
> <PUBCHEM_COMPOUND_CID>
65147700

> <PUBCHEM_COMPOUND_CANONICALIZED>
1

> <PUBCHEM_CACTVS_COMPLEXITY>
254

> <PUBCHEM_CACTVS_HBOND_ACCEPTOR>
1

> <PUBCHEM_CACTVS_HBOND_DONOR>
1

> <PUBCHEM_CACTVS_ROTATABLE_BOND>
2

> <PUBCHEM_CACTVS_SUBSKEYS>
AAADceB4IAAAAAAAAAAAAAAAAAAAAYAAAAAwYAAAAAAAAADBUAAAGgAACAAADESAmAAwAMAAAgCAAiBCAAACAAAgAAAIiAAAAIgIICKAERCAYAAkwAEIiAeAwPAOgAACAAAQAAAAAAQAACAAAAAAAAAAAA==

> <PUBCHEM_IUPAC_OPENEYE_NAME>
1-(1-naphthylmethyl)cyclopentanol

> <PUBCHEM_IUPAC_CAS_NAME>
1-(1-naphthalenylmethyl)-1-cyclopentanol

> <PUBCHEM_IUPAC_NAME>
1-(naphthalen-1-ylmethyl)cyclopentan-1-ol

> <PUBCHEM_IUPAC_SYSTEMATIC_NAME>
1-(naphthalen-1-ylmethyl)cyclopentan-1-ol

> <PUBCHEM_IUPAC_TRADITIONAL_NAME>
1-(1-naphthylmethyl)cyclopentanol

> <PUBCHEM_IUPAC_INCHI>
InChI=1S/C16H18O/c17-16(10-3-4-11-16)12-14-8-5-7-13-6-1-2-9-15(13)14/h1-2,5-9,17H,3-4,10-12H2

> <PUBCHEM_IUPAC_INCHIKEY>
ZSHREYDLFLQIFA-UHFFFAOYSA-N

> <PUBCHEM_XLOGP3>
4.3

> <PUBCHEM_EXACT_MASS>
226.135765

> <PUBCHEM_MOLECULAR_FORMULA>
C16H18O

> <PUBCHEM_MOLECULAR_WEIGHT>
226.31352

> <PUBCHEM_OPENEYE_CAN_SMILES>
C1CCC(C1)(CC2=CC=CC3=CC=CC=C32)O

> <PUBCHEM_OPENEYE_ISO_SMILES>
C1CCC(C1)(CC2=CC=CC3=CC=CC=C32)O

> <PUBCHEM_CACTVS_TPSA>
20.2

> <PUBCHEM_MONOISOTOPIC_WEIGHT>
226.135765

> <PUBCHEM_TOTAL_CHARGE>
0

> <PUBCHEM_HEAVY_ATOM_COUNT>
17

> <PUBCHEM_ATOM_DEF_STEREO_COUNT>
0

> <PUBCHEM_ATOM_UDEF_STEREO_COUNT>
0

> <PUBCHEM_BOND_DEF_STEREO_COUNT>
0

> <PUBCHEM_BOND_UDEF_STEREO_COUNT>
0

> <PUBCHEM_ISOTOPIC_ATOM_COUNT>
0

> <PUBCHEM_COMPONENT_COUNT>
1

> <PUBCHEM_CACTVS_TAUTO_COUNT>
1

> <PUBCHEM_COORDINATE_TYPE>
1
5
255

> <PUBCHEM_BONDANNOTATIONS>
10  13  8
11  14  8
11  15  8
12  16  8
13  14  8
15  17  8
16  17  8
8  10  8
8  9  8
9  11  8
9  12  8

$$$$
65147827
  -OEChem-11301218262D

 41 43  0     0  0  0  0  0  0999 V2000
    5.8660   -1.7073    0.0000 O   0  0  0  0  0  0  0  0  0  0  0  0
    5.0000   -1.2073    0.0000 C   0  0  0  0  0  0  0  0  0  0  0  0
    3.0000   -1.2073    0.0000 C   0  0  0  0  0  0  0  0  0  0  0  0
    4.5000   -0.3413    0.0000 C   0  0  0  0  0  0  0  0  0  0  0  0
    4.5000   -2.0734    0.0000 C   0  0  0  0  0  0  0  0  0  0  0  0
    3.5000   -2.0734    0.0000 C   0  0  0  0  0  0  0  0  0  0  0  0
    3.5000   -0.3413    0.0000 C   0  0  0  0  0  0  0  0  0  0  0  0
    5.8660   -0.7073    0.0000 C   0  0  0  0  0  0  0  0  0  0  0  0
    2.0000   -1.2073    0.0000 C   0  0  0  0  0  0  0  0  0  0  0  0
    5.8660    0.2927    0.0000 C   0  0  0  0  0  0  0  0  0  0  0  0
    6.7320    0.7927    0.0000 C   0  0  0  0  0  0  0  0  0  0  0  0
    5.0000    0.7927    0.0000 C   0  0  0  0  0  0  0  0  0  0  0  0
    6.7320    1.7927    0.0000 C   0  0  0  0  0  0  0  0  0  0  0  0
    5.0000    1.7927    0.0000 C   0  0  0  0  0  0  0  0  0  0  0  0
    7.6260    0.2580    0.0000 C   0  0  0  0  0  0  0  0  0  0  0  0
    5.8660    2.2927    0.0000 C   0  0  0  0  0  0  0  0  0  0  0  0
    7.6260    2.3273    0.0000 C   0  0  0  0  0  0  0  0  0  0  0  0
    8.5321    0.7719    0.0000 C   0  0  0  0  0  0  0  0  0  0  0  0
    8.5321    1.8135    0.0000 C   0  0  0  0  0  0  0  0  0  0  0  0
    2.6900   -0.6704    0.0000 H   0  0  0  0  0  0  0  0  0  0  0  0
    5.0826   -0.1293    0.0000 H   0  0  0  0  0  0  0  0  0  0  0  0
    4.3923    0.2693    0.0000 H   0  0  0  0  0  0  0  0  0  0  0  0
    4.3923   -2.6839    0.0000 H   0  0  0  0  0  0  0  0  0  0  0  0
    5.0826   -2.2854    0.0000 H   0  0  0  0  0  0  0  0  0  0  0  0
    3.6077    0.2693    0.0000 H   0  0  0  0  0  0  0  0  0  0  0  0
    2.9174   -0.1293    0.0000 H   0  0  0  0  0  0  0  0  0  0  0  0
    2.9174   -2.2854    0.0000 H   0  0  0  0  0  0  0  0  0  0  0  0
    3.6077   -2.6839    0.0000 H   0  0  0  0  0  0  0  0  0  0  0  0
    6.0781   -1.2899    0.0000 H   0  0  0  0  0  0  0  0  0  0  0  0
    6.4766   -0.5997    0.0000 H   0  0  0  0  0  0  0  0  0  0  0  0
    2.0000   -0.5873    0.0000 H   0  0  0  0  0  0  0  0  0  0  0  0
    1.3800   -1.2073    0.0000 H   0  0  0  0  0  0  0  0  0  0  0  0
    2.0000   -1.8273    0.0000 H   0  0  0  0  0  0  0  0  0  0  0  0
    5.8660   -2.3273    0.0000 H   0  0  0  0  0  0  0  0  0  0  0  0
    4.4631    0.4827    0.0000 H   0  0  0  0  0  0  0  0  0  0  0  0
    4.4631    2.1027    0.0000 H   0  0  0  0  0  0  0  0  0  0  0  0
    7.6188   -0.3620    0.0000 H   0  0  0  0  0  0  0  0  0  0  0  0
    5.8660    2.9127    0.0000 H   0  0  0  0  0  0  0  0  0  0  0  0
    7.6188    2.9473    0.0000 H   0  0  0  0  0  0  0  0  0  0  0  0
    9.0678    0.4598    0.0000 H   0  0  0  0  0  0  0  0  0  0  0  0
    9.0678    2.1256    0.0000 H   0  0  0  0  0  0  0  0  0  0  0  0
  1  2  1  0  0  0  0
  1 34  1  0  0  0  0
  2  4  1  0  0  0  0
  2  5  1  0  0  0  0
  2  8  1  0  0  0  0
  3  6  1  0  0  0  0
  3  7  1  0  0  0  0
  3  9  1  0  0  0  0
  3 20  1  0  0  0  0
  4  7  1  0  0  0  0
  4 21  1  0  0  0  0
  4 22  1  0  0  0  0
  5  6  1  0  0  0  0
  5 23  1  0  0  0  0
  5 24  1  0  0  0  0
  6 27  1  0  0  0  0
  6 28  1  0  0  0  0
  7 25  1  0  0  0  0
  7 26  1  0  0  0  0
  8 10  1  0  0  0  0
  8 29  1  0  0  0  0
  8 30  1  0  0  0  0
  9 31  1  0  0  0  0
  9 32  1  0  0  0  0
  9 33  1  0  0  0  0
 10 11  1  0  0  0  0
 10 12  2  0  0  0  0
 11 13  1  0  0  0  0
 11 15  2  0  0  0  0
 12 14  1  0  0  0  0
 12 35  1  0  0  0  0
 13 16  1  0  0  0  0
 13 17  2  0  0  0  0
 14 16  2  0  0  0  0
 14 36  1  0  0  0  0
 15 18  1  0  0  0  0
 15 37  1  0  0  0  0
 16 38  1  0  0  0  0
 17 19  1  0  0  0  0
 17 39  1  0  0  0  0
 18 19  2  0  0  0  0
 18 40  1  0  0  0  0
 19 41  1  0  0  0  0
M  END
> <PUBCHEM_COMPOUND_CID>
65147827

> <PUBCHEM_COMPOUND_CANONICALIZED>
1

> <PUBCHEM_CACTVS_COMPLEXITY>
290

> <PUBCHEM_CACTVS_HBOND_ACCEPTOR>
1

> <PUBCHEM_CACTVS_HBOND_DONOR>
1

> <PUBCHEM_CACTVS_ROTATABLE_BOND>
2

> <PUBCHEM_CACTVS_SUBSKEYS>
AAADceB4IAAAAAAAAAAAAAAAAAAAAAAAAAAwYMAAAAAAAADBUAAAGgAACAAADUSAmAAyAMAAAgCAAiBCAAACAAAgAAAIiAAAAIgIICKAERCAYAAkwAEIiAeAwPAOgAACAAAQAADAAAQAACAAAAAAAAAAAA==

> <PUBCHEM_IUPAC_OPENEYE_NAME>
4-methyl-1-(1-naphthylmethyl)cyclohexanol

> <PUBCHEM_IUPAC_CAS_NAME>
4-methyl-1-(1-naphthalenylmethyl)-1-cyclohexanol

> <PUBCHEM_IUPAC_NAME>
4-methyl-1-(naphthalen-1-ylmethyl)cyclohexan-1-ol

> <PUBCHEM_IUPAC_SYSTEMATIC_NAME>
4-methyl-1-(naphthalen-1-ylmethyl)cyclohexan-1-ol

> <PUBCHEM_IUPAC_TRADITIONAL_NAME>
4-methyl-1-(1-naphthylmethyl)cyclohexanol

> <PUBCHEM_IUPAC_INCHI>
InChI=1S/C18H22O/c1-14-9-11-18(19,12-10-14)13-16-7-4-6-15-5-2-3-8-17(15)16/h2-8,14,19H,9-13H2,1H3

> <PUBCHEM_IUPAC_INCHIKEY>
GVKXCOSIENBEGF-UHFFFAOYSA-N

> <PUBCHEM_XLOGP3>
5

> <PUBCHEM_EXACT_MASS>
254.167065

> <PUBCHEM_MOLECULAR_FORMULA>
C18H22O

> <PUBCHEM_MOLECULAR_WEIGHT>
254.36668

> <PUBCHEM_OPENEYE_CAN_SMILES>
CC1CCC(CC1)(CC2=CC=CC3=CC=CC=C32)O

> <PUBCHEM_OPENEYE_ISO_SMILES>
CC1CCC(CC1)(CC2=CC=CC3=CC=CC=C32)O

> <PUBCHEM_CACTVS_TPSA>
20.2

> <PUBCHEM_MONOISOTOPIC_WEIGHT>
254.167065

> <PUBCHEM_TOTAL_CHARGE>
0

> <PUBCHEM_HEAVY_ATOM_COUNT>
19

> <PUBCHEM_ATOM_DEF_STEREO_COUNT>
0

> <PUBCHEM_ATOM_UDEF_STEREO_COUNT>
0

> <PUBCHEM_BOND_DEF_STEREO_COUNT>
0

> <PUBCHEM_BOND_UDEF_STEREO_COUNT>
0

> <PUBCHEM_ISOTOPIC_ATOM_COUNT>
0

> <PUBCHEM_COMPONENT_COUNT>
1

> <PUBCHEM_CACTVS_TAUTO_COUNT>
1

> <PUBCHEM_COORDINATE_TYPE>
1
5
255

> <PUBCHEM_BONDANNOTATIONS>
10  11  8
10  12  8
11  13  8
11  15  8
12  14  8
13  16  8
13  17  8
14  16  8
15  18  8
17  19  8
18  19  8

$$$$
65148919
  -OEChem-11301218262D

 42 41  0     1  0  0  0  0  0999 V2000
    5.4641    1.0280    0.0000 O   0  0  0  0  0  0  0  0  0  0  0  0
    2.8660   -0.4720    0.0000 C   0  0  0  0  0  0  0  0  0  0  0  0
    3.7320    0.0280    0.0000 C   0  0  0  0  0  0  0  0  0  0  0  0
    4.5981   -0.4720    0.0000 C   0  0  0  0  0  0  0  0  0  0  0  0
    5.4641    0.0280    0.0000 C   0  0  3  0  0  0  0  0  0  0  0  0
    6.3301   -0.4720    0.0000 C   0  0  0  0  0  0  0  0  0  0  0  0
    7.1962    0.0280    0.0000 C   0  0  0  0  0  0  0  0  0  0  0  0
    2.0000   -0.9720    0.0000 C   0  0  0  0  0  0  0  0  0  0  0  0
    2.3660    0.3940    0.0000 C   0  0  0  0  0  0  0  0  0  0  0  0
    3.3660   -1.3380    0.0000 C   0  0  0  0  0  0  0  0  0  0  0  0
    8.0622   -0.4720    0.0000 C   0  0  0  0  0  0  0  0  0  0  0  0
    8.9282    0.0280    0.0000 C   0  0  0  0  0  0  0  0  0  0  0  0
    9.7942   -0.4720    0.0000 C   0  0  0  0  0  0  0  0  0  0  0  0
   10.6603    0.0280    0.0000 C   0  0  0  0  0  0  0  0  0  0  0  0
    4.1306    0.5030    0.0000 H   0  0  0  0  0  0  0  0  0  0  0  0
    3.3335    0.5030    0.0000 H   0  0  0  0  0  0  0  0  0  0  0  0
    4.1996   -0.9469    0.0000 H   0  0  0  0  0  0  0  0  0  0  0  0
    4.9966   -0.9469    0.0000 H   0  0  0  0  0  0  0  0  0  0  0  0
    6.0010    0.3380    0.0000 H   0  0  0  0  0  0  0  0  0  0  0  0
    5.9316   -0.9469    0.0000 H   0  0  0  0  0  0  0  0  0  0  0  0
    6.7287   -0.9469    0.0000 H   0  0  0  0  0  0  0  0  0  0  0  0
    7.5947    0.5030    0.0000 H   0  0  0  0  0  0  0  0  0  0  0  0
    6.7976    0.5030    0.0000 H   0  0  0  0  0  0  0  0  0  0  0  0
    1.6900   -0.4351    0.0000 H   0  0  0  0  0  0  0  0  0  0  0  0
    1.4631   -1.2820    0.0000 H   0  0  0  0  0  0  0  0  0  0  0  0
    2.3100   -1.5089    0.0000 H   0  0  0  0  0  0  0  0  0  0  0  0
    2.8291   -1.6480    0.0000 H   0  0  0  0  0  0  0  0  0  0  0  0
    3.6760   -1.8750    0.0000 H   0  0  0  0  0  0  0  0  0  0  0  0
    3.9030   -1.0280    0.0000 H   0  0  0  0  0  0  0  0  0  0  0  0
    2.9030    0.7040    0.0000 H   0  0  0  0  0  0  0  0  0  0  0  0
    2.0560    0.9310    0.0000 H   0  0  0  0  0  0  0  0  0  0  0  0
    1.8291    0.0840    0.0000 H   0  0  0  0  0  0  0  0  0  0  0  0
    7.6636   -0.9469    0.0000 H   0  0  0  0  0  0  0  0  0  0  0  0
    8.4607   -0.9469    0.0000 H   0  0  0  0  0  0  0  0  0  0  0  0
    9.3267    0.5030    0.0000 H   0  0  0  0  0  0  0  0  0  0  0  0
    8.5297    0.5030    0.0000 H   0  0  0  0  0  0  0  0  0  0  0  0
    6.0010    1.3380    0.0000 H   0  0  0  0  0  0  0  0  0  0  0  0
    9.3957   -0.9469    0.0000 H   0  0  0  0  0  0  0  0  0  0  0  0
   10.1928   -0.9469    0.0000 H   0  0  0  0  0  0  0  0  0  0  0  0
   10.9703   -0.5089    0.0000 H   0  0  0  0  0  0  0  0  0  0  0  0
   11.1972    0.3380    0.0000 H   0  0  0  0  0  0  0  0  0  0  0  0
   10.3503    0.5649    0.0000 H   0  0  0  0  0  0  0  0  0  0  0  0
  1  5  1  0  0  0  0
  1 37  1  0  0  0  0
  2  3  1  0  0  0  0
  2  8  1  0  0  0  0
  2  9  1  0  0  0  0
  2 10  1  0  0  0  0
  3  4  1  0  0  0  0
  3 15  1  0  0  0  0
  3 16  1  0  0  0  0
  4  5  1  0  0  0  0
  4 17  1  0  0  0  0
  4 18  1  0  0  0  0
  5  6  1  0  0  0  0
  5 19  1  0  0  0  0
  6  7  1  0  0  0  0
  6 20  1  0  0  0  0
  6 21  1  0  0  0  0
  7 11  1  0  0  0  0
  7 22  1  0  0  0  0
  7 23  1  0  0  0  0
  8 24  1  0  0  0  0
  8 25  1  0  0  0  0
  8 26  1  0  0  0  0
  9 30  1  0  0  0  0
  9 31  1  0  0  0  0
  9 32  1  0  0  0  0
 10 27  1  0  0  0  0
 10 28  1  0  0  0  0
 10 29  1  0  0  0  0
 11 12  1  0  0  0  0
 11 33  1  0  0  0  0
 11 34  1  0  0  0  0
 12 13  1  0  0  0  0
 12 35  1  0  0  0  0
 12 36  1  0  0  0  0
 13 14  1  0  0  0  0
 13 38  1  0  0  0  0
 13 39  1  0  0  0  0
 14 40  1  0  0  0  0
 14 41  1  0  0  0  0
 14 42  1  0  0  0  0
M  END
> <PUBCHEM_COMPOUND_CID>
65148919

> <PUBCHEM_COMPOUND_CANONICALIZED>
1

> <PUBCHEM_CACTVS_COMPLEXITY>
124

> <PUBCHEM_CACTVS_HBOND_ACCEPTOR>
1

> <PUBCHEM_CACTVS_HBOND_DONOR>
1

> <PUBCHEM_CACTVS_ROTATABLE_BOND>
8

> <PUBCHEM_CACTVS_SUBSKEYS>
AAADceBwIAAAAAAAAAAAAAAAAAAAAAAAAAAAAAAAAAAAAAAAAAAAGgAACAAADhSggAICAAAAAgAAAAAAAAAAAAAAAAAAAAAAAAAAEAIAAAAAQAAEAAAAAAGAwOANAAAAAAAAAAAAAAAAAAAAAAAAAAAAAA==

> <PUBCHEM_IUPAC_OPENEYE_NAME>
2,2-dimethylundecan-5-ol

> <PUBCHEM_IUPAC_CAS_NAME>
2,2-dimethyl-5-undecanol

> <PUBCHEM_IUPAC_NAME>
2,2-dimethylundecan-5-ol

> <PUBCHEM_IUPAC_SYSTEMATIC_NAME>
2,2-dimethylundecan-5-ol

> <PUBCHEM_IUPAC_TRADITIONAL_NAME>
2,2-dimethylundecan-5-ol

> <PUBCHEM_IUPAC_INCHI>
InChI=1S/C13H28O/c1-5-6-7-8-9-12(14)10-11-13(2,3)4/h12,14H,5-11H2,1-4H3

> <PUBCHEM_IUPAC_INCHIKEY>
LGVCNZVAROKGRR-UHFFFAOYSA-N

> <PUBCHEM_XLOGP3>
5

> <PUBCHEM_EXACT_MASS>
200.214016

> <PUBCHEM_MOLECULAR_FORMULA>
C13H28O

> <PUBCHEM_MOLECULAR_WEIGHT>
200.36082

> <PUBCHEM_OPENEYE_CAN_SMILES>
CCCCCCC(CCC(C)(C)C)O

> <PUBCHEM_OPENEYE_ISO_SMILES>
CCCCCCC(CCC(C)(C)C)O

> <PUBCHEM_CACTVS_TPSA>
20.2

> <PUBCHEM_MONOISOTOPIC_WEIGHT>
200.214016

> <PUBCHEM_TOTAL_CHARGE>
0

> <PUBCHEM_HEAVY_ATOM_COUNT>
14

> <PUBCHEM_ATOM_DEF_STEREO_COUNT>
0

> <PUBCHEM_ATOM_UDEF_STEREO_COUNT>
1

> <PUBCHEM_BOND_DEF_STEREO_COUNT>
0

> <PUBCHEM_BOND_UDEF_STEREO_COUNT>
0

> <PUBCHEM_ISOTOPIC_ATOM_COUNT>
0

> <PUBCHEM_COMPONENT_COUNT>
1

> <PUBCHEM_CACTVS_TAUTO_COUNT>
1

> <PUBCHEM_COORDINATE_TYPE>
1
5
255

> <PUBCHEM_BONDANNOTATIONS>
5  1  3

$$$$
65149916
  -OEChem-11301218262D

 36 35  0     1  0  0  0  0  0999 V2000
    5.4641    1.0280    0.0000 O   0  0  0  0  0  0  0  0  0  0  0  0
    2.8660   -0.4720    0.0000 C   0  0  0  0  0  0  0  0  0  0  0  0
    3.7320    0.0280    0.0000 C   0  0  0  0  0  0  0  0  0  0  0  0
    4.5981   -0.4720    0.0000 C   0  0  0  0  0  0  0  0  0  0  0  0
    5.4641    0.0280    0.0000 C   0  0  3  0  0  0  0  0  0  0  0  0
    6.3301   -0.4720    0.0000 C   0  0  0  0  0  0  0  0  0  0  0  0
    2.0000   -0.9720    0.0000 C   0  0  0  0  0  0  0  0  0  0  0  0
    2.3660    0.3940    0.0000 C   0  0  0  0  0  0  0  0  0  0  0  0
    3.3660   -1.3380    0.0000 C   0  0  0  0  0  0  0  0  0  0  0  0
    7.1962    0.0280    0.0000 C   0  0  0  0  0  0  0  0  0  0  0  0
    8.0622   -0.4720    0.0000 C   0  0  0  0  0  0  0  0  0  0  0  0
    8.9282    0.0280    0.0000 C   0  0  0  0  0  0  0  0  0  0  0  0
    4.1306    0.5030    0.0000 H   0  0  0  0  0  0  0  0  0  0  0  0
    3.3335    0.5030    0.0000 H   0  0  0  0  0  0  0  0  0  0  0  0
    4.1996   -0.9469    0.0000 H   0  0  0  0  0  0  0  0  0  0  0  0
    4.9966   -0.9469    0.0000 H   0  0  0  0  0  0  0  0  0  0  0  0
    6.0010    0.3380    0.0000 H   0  0  0  0  0  0  0  0  0  0  0  0
    5.9316   -0.9469    0.0000 H   0  0  0  0  0  0  0  0  0  0  0  0
    6.7287   -0.9469    0.0000 H   0  0  0  0  0  0  0  0  0  0  0  0
    2.9030    0.7040    0.0000 H   0  0  0  0  0  0  0  0  0  0  0  0
    2.0560    0.9310    0.0000 H   0  0  0  0  0  0  0  0  0  0  0  0
    1.8291    0.0840    0.0000 H   0  0  0  0  0  0  0  0  0  0  0  0
    2.8291   -1.6480    0.0000 H   0  0  0  0  0  0  0  0  0  0  0  0
    3.6760   -1.8750    0.0000 H   0  0  0  0  0  0  0  0  0  0  0  0
    3.9030   -1.0280    0.0000 H   0  0  0  0  0  0  0  0  0  0  0  0
    1.6900   -0.4351    0.0000 H   0  0  0  0  0  0  0  0  0  0  0  0
    1.4631   -1.2820    0.0000 H   0  0  0  0  0  0  0  0  0  0  0  0
    2.3100   -1.5089    0.0000 H   0  0  0  0  0  0  0  0  0  0  0  0
    7.5947    0.5030    0.0000 H   0  0  0  0  0  0  0  0  0  0  0  0
    6.7976    0.5030    0.0000 H   0  0  0  0  0  0  0  0  0  0  0  0
    7.6636   -0.9469    0.0000 H   0  0  0  0  0  0  0  0  0  0  0  0
    8.4607   -0.9469    0.0000 H   0  0  0  0  0  0  0  0  0  0  0  0
    6.0010    1.3380    0.0000 H   0  0  0  0  0  0  0  0  0  0  0  0
    9.2382   -0.5089    0.0000 H   0  0  0  0  0  0  0  0  0  0  0  0
    9.4651    0.3380    0.0000 H   0  0  0  0  0  0  0  0  0  0  0  0
    8.6182    0.5649    0.0000 H   0  0  0  0  0  0  0  0  0  0  0  0
  1  5  1  0  0  0  0
  1 33  1  0  0  0  0
  2  3  1  0  0  0  0
  2  7  1  0  0  0  0
  2  8  1  0  0  0  0
  2  9  1  0  0  0  0
  3  4  1  0  0  0  0
  3 13  1  0  0  0  0
  3 14  1  0  0  0  0
  4  5  1  0  0  0  0
  4 15  1  0  0  0  0
  4 16  1  0  0  0  0
  5  6  1  0  0  0  0
  5 17  1  0  0  0  0
  6 10  1  0  0  0  0
  6 18  1  0  0  0  0
  6 19  1  0  0  0  0
  7 26  1  0  0  0  0
  7 27  1  0  0  0  0
  7 28  1  0  0  0  0
  8 20  1  0  0  0  0
  8 21  1  0  0  0  0
  8 22  1  0  0  0  0
  9 23  1  0  0  0  0
  9 24  1  0  0  0  0
  9 25  1  0  0  0  0
 10 11  1  0  0  0  0
 10 29  1  0  0  0  0
 10 30  1  0  0  0  0
 11 12  1  0  0  0  0
 11 31  1  0  0  0  0
 11 32  1  0  0  0  0
 12 34  1  0  0  0  0
 12 35  1  0  0  0  0
 12 36  1  0  0  0  0
M  END
> <PUBCHEM_COMPOUND_CID>
65149916

> <PUBCHEM_COMPOUND_CANONICALIZED>
1

> <PUBCHEM_CACTVS_COMPLEXITY>
102

> <PUBCHEM_CACTVS_HBOND_ACCEPTOR>
1

> <PUBCHEM_CACTVS_HBOND_DONOR>
1

> <PUBCHEM_CACTVS_ROTATABLE_BOND>
6

> <PUBCHEM_CACTVS_SUBSKEYS>
AAADceBwIAAAAAAAAAAAAAAAAAAAAAAAAAAAAAAAAAAAAAAAAAAAGgAACAAADhSggAICAAAAAgAAAAAAAAAAAAAAAAAAAAAAAAAAEAIAAAAAQAAEAAAAAAGAgMANAAAAAAAAAAAAAAAAAAAAAAAAAAAAAA==

> <PUBCHEM_IUPAC_OPENEYE_NAME>
2,2-dimethylnonan-5-ol

> <PUBCHEM_IUPAC_CAS_NAME>
2,2-dimethyl-5-nonanol

> <PUBCHEM_IUPAC_NAME>
2,2-dimethylnonan-5-ol

> <PUBCHEM_IUPAC_SYSTEMATIC_NAME>
2,2-dimethylnonan-5-ol

> <PUBCHEM_IUPAC_TRADITIONAL_NAME>
2,2-dimethylnonan-5-ol

> <PUBCHEM_IUPAC_INCHI>
InChI=1S/C11H24O/c1-5-6-7-10(12)8-9-11(2,3)4/h10,12H,5-9H2,1-4H3

> <PUBCHEM_IUPAC_INCHIKEY>
ZCXLNCVCQISZAB-UHFFFAOYSA-N

> <PUBCHEM_XLOGP3>
3.9

> <PUBCHEM_EXACT_MASS>
172.182715

> <PUBCHEM_MOLECULAR_FORMULA>
C11H24O

> <PUBCHEM_MOLECULAR_WEIGHT>
172.30766

> <PUBCHEM_OPENEYE_CAN_SMILES>
CCCCC(CCC(C)(C)C)O

> <PUBCHEM_OPENEYE_ISO_SMILES>
CCCCC(CCC(C)(C)C)O

> <PUBCHEM_CACTVS_TPSA>
20.2

> <PUBCHEM_MONOISOTOPIC_WEIGHT>
172.182715

> <PUBCHEM_TOTAL_CHARGE>
0

> <PUBCHEM_HEAVY_ATOM_COUNT>
12

> <PUBCHEM_ATOM_DEF_STEREO_COUNT>
0

> <PUBCHEM_ATOM_UDEF_STEREO_COUNT>
1

> <PUBCHEM_BOND_DEF_STEREO_COUNT>
0

> <PUBCHEM_BOND_UDEF_STEREO_COUNT>
0

> <PUBCHEM_ISOTOPIC_ATOM_COUNT>
0

> <PUBCHEM_COMPONENT_COUNT>
1

> <PUBCHEM_CACTVS_TAUTO_COUNT>
1

> <PUBCHEM_COORDINATE_TYPE>
1
5
255

> <PUBCHEM_BONDANNOTATIONS>
5  1  3

$$$$
