54848869
  -OEChem-06121222042D

 29 29  0     0  0  0  0  0  0999 V2000
    4.5981   -2.1550    0.0000 Br  0  0  0  0  0  0  0  0  0  0  0  0
    4.5981    1.8450    0.0000 O   0  0  0  0  0  0  0  0  0  0  0  0
    2.8660    0.8450    0.0000 C   0  0  0  0  0  0  0  0  0  0  0  0
    3.7320    0.3450    0.0000 C   0  0  0  0  0  0  0  0  0  0  0  0
    4.5981    0.8450    0.0000 C   0  0  0  0  0  0  0  0  0  0  0  0
    5.4641    0.3450    0.0000 C   0  0  0  0  0  0  0  0  0  0  0  0
    2.0000    0.3450    0.0000 C   0  0  0  0  0  0  0  0  0  0  0  0
    2.8660    1.8450    0.0000 C   0  0  0  0  0  0  0  0  0  0  0  0
    3.7320   -0.6550    0.0000 C   0  0  0  0  0  0  0  0  0  0  0  0
    6.3301    0.8450    0.0000 C   0  0  0  0  0  0  0  0  0  0  0  0
    5.4641   -0.6550    0.0000 C   0  0  0  0  0  0  0  0  0  0  0  0
    4.5981   -1.1550    0.0000 C   0  0  0  0  0  0  0  0  0  0  0  0
    7.1962    0.3450    0.0000 C   0  0  0  0  0  0  0  0  0  0  0  0
    8.0622    0.8450    0.0000 C   0  0  0  0  0  0  0  0  0  0  0  0
    2.8660    0.2250    0.0000 H   0  0  0  0  0  0  0  0  0  0  0  0
    1.6900    0.8819    0.0000 H   0  0  0  0  0  0  0  0  0  0  0  0
    1.4631    0.0350    0.0000 H   0  0  0  0  0  0  0  0  0  0  0  0
    3.4860    1.8450    0.0000 H   0  0  0  0  0  0  0  0  0  0  0  0
    2.8660    2.4650    0.0000 H   0  0  0  0  0  0  0  0  0  0  0  0
    2.2460    1.8450    0.0000 H   0  0  0  0  0  0  0  0  0  0  0  0
    2.3100   -0.1919    0.0000 H   0  0  0  0  0  0  0  0  0  0  0  0
    3.1951   -0.9650    0.0000 H   0  0  0  0  0  0  0  0  0  0  0  0
    6.7287    1.3200    0.0000 H   0  0  0  0  0  0  0  0  0  0  0  0
    5.9316    1.3200    0.0000 H   0  0  0  0  0  0  0  0  0  0  0  0
    6.0010   -0.9650    0.0000 H   0  0  0  0  0  0  0  0  0  0  0  0
    7.1962   -0.2750    0.0000 H   0  0  0  0  0  0  0  0  0  0  0  0
    5.1350    2.1550    0.0000 H   0  0  0  0  0  0  0  0  0  0  0  0
    8.5991    0.5350    0.0000 H   0  0  0  0  0  0  0  0  0  0  0  0
    8.0622    1.4650    0.0000 H   0  0  0  0  0  0  0  0  0  0  0  0
  1 12  1  0  0  0  0
  2  5  1  0  0  0  0
  2 27  1  0  0  0  0
  3  4  1  0  0  0  0
  3  7  1  0  0  0  0
  3  8  1  0  0  0  0
  3 15  1  0  0  0  0
  4  5  1  0  0  0  0
  4  9  2  0  0  0  0
  5  6  2  0  0  0  0
  6 10  1  0  0  0  0
  6 11  1  0  0  0  0
  7 16  1  0  0  0  0
  7 17  1  0  0  0  0
  7 21  1  0  0  0  0
  8 18  1  0  0  0  0
  8 19  1  0  0  0  0
  8 20  1  0  0  0  0
  9 12  1  0  0  0  0
  9 22  1  0  0  0  0
 10 13  1  0  0  0  0
 10 23  1  0  0  0  0
 10 24  1  0  0  0  0
 11 12  2  0  0  0  0
 11 25  1  0  0  0  0
 13 14  2  0  0  0  0
 13 26  1  0  0  0  0
 14 28  1  0  0  0  0
 14 29  1  0  0  0  0
M  END
> <PUBCHEM_COMPOUND_CID>
54848869

> <PUBCHEM_COMPOUND_CANONICALIZED>
1

> <PUBCHEM_CACTVS_COMPLEXITY>
191

> <PUBCHEM_CACTVS_HBOND_ACCEPTOR>
1

> <PUBCHEM_CACTVS_HBOND_DONOR>
1

> <PUBCHEM_CACTVS_ROTATABLE_BOND>
3

> <PUBCHEM_CACTVS_SUBSKEYS>
AAADccBwIAAAEAAAAAAAAAAAAAAAAAAAAAAwAAAAAAAAAAABAAAAGgBACAABrQSAmAAyBoAAAgCAAiBCAAACAAAgIAQIiAAECKgIJiKCERKAcAAkwBEImheAwOAOgBACEAAIAAAAIAQgABAAAAAAAAAAAA==

> <PUBCHEM_IUPAC_OPENEYE_NAME>
2-allyl-4-bromo-6-isopropyl-phenol

> <PUBCHEM_IUPAC_CAS_NAME>
4-bromo-2-propan-2-yl-6-prop-2-enylphenol

> <PUBCHEM_IUPAC_NAME>
4-bromo-2-propan-2-yl-6-prop-2-enylphenol

> <PUBCHEM_IUPAC_SYSTEMATIC_NAME>
4-bromanyl-2-propan-2-yl-6-prop-2-enyl-phenol

> <PUBCHEM_IUPAC_TRADITIONAL_NAME>
2-allyl-4-bromo-6-isopropyl-phenol

> <PUBCHEM_IUPAC_INCHI>
InChI=1S/C12H15BrO/c1-4-5-9-6-10(13)7-11(8(2)3)12(9)14/h4,6-8,14H,1,5H2,2-3H3

> <PUBCHEM_IUPAC_INCHIKEY>
KMRYHUMHNRFOQR-UHFFFAOYSA-N

> <PUBCHEM_XLOGP3>
4.5

> <PUBCHEM_EXACT_MASS>
254.030627

> <PUBCHEM_MOLECULAR_FORMULA>
C12H15BrO

> <PUBCHEM_MOLECULAR_WEIGHT>
255.1509

> <PUBCHEM_OPENEYE_CAN_SMILES>
CC(C)C1=C(C(=CC(=C1)Br)CC=C)O

> <PUBCHEM_OPENEYE_ISO_SMILES>
CC(C)C1=C(C(=CC(=C1)Br)CC=C)O

> <PUBCHEM_CACTVS_TPSA>
20.2

> <PUBCHEM_MONOISOTOPIC_WEIGHT>
254.030627

> <PUBCHEM_TOTAL_CHARGE>
0

> <PUBCHEM_HEAVY_ATOM_COUNT>
14

> <PUBCHEM_ATOM_DEF_STEREO_COUNT>
0

> <PUBCHEM_ATOM_UDEF_STEREO_COUNT>
0

> <PUBCHEM_BOND_DEF_STEREO_COUNT>
0

> <PUBCHEM_BOND_UDEF_STEREO_COUNT>
0

> <PUBCHEM_ISOTOPIC_ATOM_COUNT>
0

> <PUBCHEM_COMPONENT_COUNT>
1

> <PUBCHEM_CACTVS_TAUTO_COUNT>
3

> <PUBCHEM_COORDINATE_TYPE>
1
5
255

> <PUBCHEM_BONDANNOTATIONS>
11  12  8
4  5  8
4  9  8
5  6  8
6  11  8
9  12  8

$$$$
