16308671
  -OEChem-11301217192D

 26 27  0     1  0  0  0  0  0999 V2000
    2.0000   -2.9330    0.0000 I   0  0  0  0  0  0  0  0  0  0  0  0
    5.4641    0.0670    0.0000 O   0  0  0  0  0  0  0  0  0  0  0  0
    3.7320    0.0670    0.0000 N   0  0  0  0  0  0  0  0  0  0  0  0
    5.0981    2.4330    0.0000 C   0  0  3  0  0  0  0  0  0  0  0  0
    4.5981    1.5670    0.0000 C   0  0  3  0  0  0  0  0  0  0  0  0
    4.0981    2.4330    0.0000 C   0  0  0  0  0  0  0  0  0  0  0  0
    5.9641    2.9330    0.0000 C   0  0  0  0  0  0  0  0  0  0  0  0
    4.5981    0.5670    0.0000 C   0  0  0  0  0  0  0  0  0  0  0  0
    3.7320   -0.9330    0.0000 C   0  0  0  0  0  0  0  0  0  0  0  0
    2.8660   -1.4330    0.0000 C   0  0  0  0  0  0  0  0  0  0  0  0
    4.5981   -1.4330    0.0000 C   0  0  0  0  0  0  0  0  0  0  0  0
    2.8660   -2.4330    0.0000 C   0  0  0  0  0  0  0  0  0  0  0  0
    4.5981   -2.4330    0.0000 C   0  0  0  0  0  0  0  0  0  0  0  0
    3.7320   -2.9330    0.0000 C   0  0  0  0  0  0  0  0  0  0  0  0
    4.9376    3.0319    0.0000 H   0  0  0  0  0  0  0  0  0  0  0  0
    5.1970    1.4065    0.0000 H   0  0  0  0  0  0  0  0  0  0  0  0
    3.9904    3.0436    0.0000 H   0  0  0  0  0  0  0  0  0  0  0  0
    3.5155    2.2210    0.0000 H   0  0  0  0  0  0  0  0  0  0  0  0
    6.2741    2.3961    0.0000 H   0  0  0  0  0  0  0  0  0  0  0  0
    6.5010    3.2430    0.0000 H   0  0  0  0  0  0  0  0  0  0  0  0
    5.6541    3.4700    0.0000 H   0  0  0  0  0  0  0  0  0  0  0  0
    3.1951    0.3770    0.0000 H   0  0  0  0  0  0  0  0  0  0  0  0
    2.3291   -1.1230    0.0000 H   0  0  0  0  0  0  0  0  0  0  0  0
    5.1350   -1.1230    0.0000 H   0  0  0  0  0  0  0  0  0  0  0  0
    5.1350   -2.7430    0.0000 H   0  0  0  0  0  0  0  0  0  0  0  0
    3.7320   -3.5530    0.0000 H   0  0  0  0  0  0  0  0  0  0  0  0
  1 12  1  0  0  0  0
  2  8  2  0  0  0  0
  3  8  1  0  0  0  0
  3  9  1  0  0  0  0
  3 22  1  0  0  0  0
  4  5  1  0  0  0  0
  4  6  1  0  0  0  0
  4  7  1  0  0  0  0
  4 15  1  0  0  0  0
  5  6  1  0  0  0  0
  5  8  1  0  0  0  0
  5 16  1  0  0  0  0
  6 17  1  0  0  0  0
  6 18  1  0  0  0  0
  7 19  1  0  0  0  0
  7 20  1  0  0  0  0
  7 21  1  0  0  0  0
  9 10  2  0  0  0  0
  9 11  1  0  0  0  0
 10 12  1  0  0  0  0
 10 23  1  0  0  0  0
 11 13  2  0  0  0  0
 11 24  1  0  0  0  0
 12 14  2  0  0  0  0
 13 14  1  0  0  0  0
 13 25  1  0  0  0  0
 14 26  1  0  0  0  0
M  END
> <PUBCHEM_COMPOUND_CID>
16308671

> <PUBCHEM_COMPOUND_CANONICALIZED>
1

> <PUBCHEM_CACTVS_COMPLEXITY>
231

> <PUBCHEM_CACTVS_HBOND_ACCEPTOR>
1

> <PUBCHEM_CACTVS_HBOND_DONOR>
1

> <PUBCHEM_CACTVS_ROTATABLE_BOND>
2

> <PUBCHEM_CACTVS_SUBSKEYS>
AAADccByIAAAAgAAAAAAAAAAGAAAAAAAAAAwAAAAAAAAAAABAAAAHgAwAAAADQiDkAAywILAAACIACVSUACCAAAhAgAIiAEAZIgIIDLAkZGEIAhglADIyAcYAAAIAAAAAAAAAAAAAAAAAAAAAAAAAAAAAA==

> <PUBCHEM_IUPAC_OPENEYE_NAME>
N-(3-iodophenyl)-2-methyl-cyclopropanecarboxamide

> <PUBCHEM_IUPAC_CAS_NAME>
N-(3-iodophenyl)-2-methyl-1-cyclopropanecarboxamide

> <PUBCHEM_IUPAC_NAME>
N-(3-iodophenyl)-2-methylcyclopropane-1-carboxamide

> <PUBCHEM_IUPAC_SYSTEMATIC_NAME>
N-(3-iodanylphenyl)-2-methyl-cyclopropane-1-carboxamide

> <PUBCHEM_IUPAC_TRADITIONAL_NAME>
N-(3-iodophenyl)-2-methyl-cyclopropanecarboxamide

> <PUBCHEM_IUPAC_INCHI>
InChI=1S/C11H12INO/c1-7-5-10(7)11(14)13-9-4-2-3-8(12)6-9/h2-4,6-7,10H,5H2,1H3,(H,13,14)

> <PUBCHEM_IUPAC_INCHIKEY>
WOWMKWVXHJKPSY-UHFFFAOYSA-N

> <PUBCHEM_XLOGP3>
3.5

> <PUBCHEM_EXACT_MASS>
300.996362

> <PUBCHEM_MOLECULAR_FORMULA>
C11H12INO

> <PUBCHEM_MOLECULAR_WEIGHT>
301.12355

> <PUBCHEM_OPENEYE_CAN_SMILES>
CC1CC1C(=O)NC2=CC(=CC=C2)I

> <PUBCHEM_OPENEYE_ISO_SMILES>
CC1CC1C(=O)NC2=CC(=CC=C2)I

> <PUBCHEM_CACTVS_TPSA>
29.1

> <PUBCHEM_MONOISOTOPIC_WEIGHT>
300.996362

> <PUBCHEM_TOTAL_CHARGE>
0

> <PUBCHEM_HEAVY_ATOM_COUNT>
14

> <PUBCHEM_ATOM_DEF_STEREO_COUNT>
0

> <PUBCHEM_ATOM_UDEF_STEREO_COUNT>
2

> <PUBCHEM_BOND_DEF_STEREO_COUNT>
0

> <PUBCHEM_BOND_UDEF_STEREO_COUNT>
0

> <PUBCHEM_ISOTOPIC_ATOM_COUNT>
0

> <PUBCHEM_COMPONENT_COUNT>
1

> <PUBCHEM_CACTVS_TAUTO_COUNT>
3

> <PUBCHEM_COORDINATE_TYPE>
1
5
255

> <PUBCHEM_BONDANNOTATIONS>
10  12  8
11  13  8
12  14  8
13  14  8
4  7  3
5  8  3
9  10  8
9  11  8

$$$$
16318723
  -OEChem-11301217192D

 38 39  0     1  0  0  0  0  0999 V2000
    5.4641   -1.0000    0.0000 O   0  0  0  0  0  0  0  0  0  0  0  0
    3.7320   -1.0000    0.0000 N   0  0  0  0  0  0  0  0  0  0  0  0
    5.4641    1.0000    0.0000 C   0  0  3  0  0  0  0  0  0  0  0  0
    4.5981    0.5000    0.0000 C   0  0  0  0  0  0  0  0  0  0  0  0
    5.4641    2.0000    0.0000 C   0  0  0  0  0  0  0  0  0  0  0  0
    6.3301    0.5000    0.0000 C   0  0  0  0  0  0  0  0  0  0  0  0
    4.5981   -0.5000    0.0000 C   0  0  0  0  0  0  0  0  0  0  0  0
    6.3301    2.5000    0.0000 C   0  0  0  0  0  0  0  0  0  0  0  0
    4.5981    2.5000    0.0000 C   0  0  0  0  0  0  0  0  0  0  0  0
    3.7320   -2.0000    0.0000 C   0  0  0  0  0  0  0  0  0  0  0  0
    6.3301    3.5000    0.0000 C   0  0  0  0  0  0  0  0  0  0  0  0
    4.5981    3.5000    0.0000 C   0  0  0  0  0  0  0  0  0  0  0  0
    5.4641    4.0000    0.0000 C   0  0  0  0  0  0  0  0  0  0  0  0
    2.8660   -2.5000    0.0000 C   0  0  0  0  0  0  0  0  0  0  0  0
    2.8660   -3.5000    0.0000 C   0  0  0  0  0  0  0  0  0  0  0  0
    4.5981   -2.5000    0.0000 C   0  0  0  0  0  0  0  0  0  0  0  0
    3.7320   -4.0000    0.0000 C   0  0  0  0  0  0  0  0  0  0  0  0
    4.5981   -3.5000    0.0000 C   0  0  0  0  0  0  0  0  0  0  0  0
    2.0000   -4.0000    0.0000 C   0  0  0  0  0  0  0  0  0  0  0  0
    5.4641    0.3800    0.0000 H   0  0  0  0  0  0  0  0  0  0  0  0
    4.3860    1.0826    0.0000 H   0  0  0  0  0  0  0  0  0  0  0  0
    3.9875    0.3923    0.0000 H   0  0  0  0  0  0  0  0  0  0  0  0
    6.0201   -0.0369    0.0000 H   0  0  0  0  0  0  0  0  0  0  0  0
    6.8671    0.1900    0.0000 H   0  0  0  0  0  0  0  0  0  0  0  0
    6.6401    1.0369    0.0000 H   0  0  0  0  0  0  0  0  0  0  0  0
    6.8671    2.1900    0.0000 H   0  0  0  0  0  0  0  0  0  0  0  0
    4.0611    2.1900    0.0000 H   0  0  0  0  0  0  0  0  0  0  0  0
    3.1951   -0.6900    0.0000 H   0  0  0  0  0  0  0  0  0  0  0  0
    6.8671    3.8100    0.0000 H   0  0  0  0  0  0  0  0  0  0  0  0
    4.0611    3.8100    0.0000 H   0  0  0  0  0  0  0  0  0  0  0  0
    2.3291   -2.1900    0.0000 H   0  0  0  0  0  0  0  0  0  0  0  0
    5.4641    4.6200    0.0000 H   0  0  0  0  0  0  0  0  0  0  0  0
    5.1350   -2.1900    0.0000 H   0  0  0  0  0  0  0  0  0  0  0  0
    3.7320   -4.6200    0.0000 H   0  0  0  0  0  0  0  0  0  0  0  0
    5.1350   -3.8100    0.0000 H   0  0  0  0  0  0  0  0  0  0  0  0
    1.6900   -3.4631    0.0000 H   0  0  0  0  0  0  0  0  0  0  0  0
    1.4631   -4.3100    0.0000 H   0  0  0  0  0  0  0  0  0  0  0  0
    2.3100   -4.5369    0.0000 H   0  0  0  0  0  0  0  0  0  0  0  0
  1  7  2  0  0  0  0
  2  7  1  0  0  0  0
  2 10  1  0  0  0  0
  2 28  1  0  0  0  0
  3  4  1  0  0  0  0
  3  5  1  0  0  0  0
  3  6  1  0  0  0  0
  3 20  1  0  0  0  0
  4  7  1  0  0  0  0
  4 21  1  0  0  0  0
  4 22  1  0  0  0  0
  5  8  2  0  0  0  0
  5  9  1  0  0  0  0
  6 23  1  0  0  0  0
  6 24  1  0  0  0  0
  6 25  1  0  0  0  0
  8 11  1  0  0  0  0
  8 26  1  0  0  0  0
  9 12  2  0  0  0  0
  9 27  1  0  0  0  0
 10 14  1  0  0  0  0
 10 16  2  0  0  0  0
 11 13  2  0  0  0  0
 11 29  1  0  0  0  0
 12 13  1  0  0  0  0
 12 30  1  0  0  0  0
 13 32  1  0  0  0  0
 14 15  2  0  0  0  0
 14 31  1  0  0  0  0
 15 17  1  0  0  0  0
 15 19  1  0  0  0  0
 16 18  1  0  0  0  0
 16 33  1  0  0  0  0
 17 18  2  0  0  0  0
 17 34  1  0  0  0  0
 18 35  1  0  0  0  0
 19 36  1  0  0  0  0
 19 37  1  0  0  0  0
 19 38  1  0  0  0  0
M  END
> <PUBCHEM_COMPOUND_CID>
16318723

> <PUBCHEM_COMPOUND_CANONICALIZED>
1

> <PUBCHEM_CACTVS_COMPLEXITY>
283

> <PUBCHEM_CACTVS_HBOND_ACCEPTOR>
1

> <PUBCHEM_CACTVS_HBOND_DONOR>
1

> <PUBCHEM_CACTVS_ROTATABLE_BOND>
4

> <PUBCHEM_CACTVS_SUBSKEYS>
AAADceB6IAAAAAAAAAAAAAAAAAAAAAAAAAAwYAAAAAAAAAABQAAAHgAQAAAADQiBmAAywILAAACIAiVSUACCAAAhAgAIiAEAZIgIIDLAkZGEIAhglADIyAcYiMCOgAAAQAAAAAAAAACAAAAAAAAAAAAAAA==

> <PUBCHEM_IUPAC_OPENEYE_NAME>
N-(m-tolyl)-3-phenyl-butanamide

> <PUBCHEM_IUPAC_CAS_NAME>
N-(3-methylphenyl)-3-phenylbutanamide

> <PUBCHEM_IUPAC_NAME>
N-(3-methylphenyl)-3-phenylbutanamide

> <PUBCHEM_IUPAC_SYSTEMATIC_NAME>
N-(3-methylphenyl)-3-phenyl-butanamide

> <PUBCHEM_IUPAC_TRADITIONAL_NAME>
N-(m-tolyl)-3-phenyl-butyramide

> <PUBCHEM_IUPAC_INCHI>
InChI=1S/C17H19NO/c1-13-7-6-10-16(11-13)18-17(19)12-14(2)15-8-4-3-5-9-15/h3-11,14H,12H2,1-2H3,(H,18,19)

> <PUBCHEM_IUPAC_INCHIKEY>
PUJVNUBXXHVMKT-UHFFFAOYSA-N

> <PUBCHEM_XLOGP3>
3.9

> <PUBCHEM_EXACT_MASS>
253.146664

> <PUBCHEM_MOLECULAR_FORMULA>
C17H19NO

> <PUBCHEM_MOLECULAR_WEIGHT>
253.33886

> <PUBCHEM_OPENEYE_CAN_SMILES>
CC1=CC(=CC=C1)NC(=O)CC(C)C2=CC=CC=C2

> <PUBCHEM_OPENEYE_ISO_SMILES>
CC1=CC(=CC=C1)NC(=O)CC(C)C2=CC=CC=C2

> <PUBCHEM_CACTVS_TPSA>
29.1

> <PUBCHEM_MONOISOTOPIC_WEIGHT>
253.146664

> <PUBCHEM_TOTAL_CHARGE>
0

> <PUBCHEM_HEAVY_ATOM_COUNT>
19

> <PUBCHEM_ATOM_DEF_STEREO_COUNT>
0

> <PUBCHEM_ATOM_UDEF_STEREO_COUNT>
1

> <PUBCHEM_BOND_DEF_STEREO_COUNT>
0

> <PUBCHEM_BOND_UDEF_STEREO_COUNT>
0

> <PUBCHEM_ISOTOPIC_ATOM_COUNT>
0

> <PUBCHEM_COMPONENT_COUNT>
1

> <PUBCHEM_CACTVS_TAUTO_COUNT>
3

> <PUBCHEM_COORDINATE_TYPE>
1
5
255

> <PUBCHEM_BONDANNOTATIONS>
10  14  8
10  16  8
11  13  8
12  13  8
14  15  8
15  17  8
16  18  8
17  18  8
3  6  3
5  8  8
5  9  8
8  11  8
9  12  8

$$$$
16321286
  -OEChem-11301217192D

 37 39  0     0  0  0  0  0  0999 V2000
    7.9128    1.3512    0.0000 Cl  0  0  0  0  0  0  0  0  0  0  0  0
    4.4487    0.3512    0.0000 O   0  0  0  0  0  0  0  0  0  0  0  0
    3.5827   -3.1488    0.0000 N   0  0  0  0  0  0  0  0  0  0  0  0
    6.1808    0.3512    0.0000 N   0  0  0  0  0  0  0  0  0  0  0  0
    4.4487   -2.6488    0.0000 C   0  0  0  0  0  0  0  0  0  0  0  0
    5.3147   -1.1488    0.0000 C   0  0  0  0  0  0  0  0  0  0  0  0
    4.4487   -1.6488    0.0000 C   0  0  0  0  0  0  0  0  0  0  0  0
    5.3147   -3.1488    0.0000 C   0  0  0  0  0  0  0  0  0  0  0  0
    6.1808    1.3512    0.0000 C   0  0  0  0  0  0  0  0  0  0  0  0
    5.3147   -0.1488    0.0000 C   0  0  0  0  0  0  0  0  0  0  0  0
    6.1808   -1.6488    0.0000 C   0  0  0  0  0  0  0  0  0  0  0  0
    2.6691   -2.7420    0.0000 C   0  0  0  0  0  0  0  0  0  0  0  0
    3.4782   -4.1433    0.0000 C   0  0  0  0  0  0  0  0  0  0  0  0
    6.1808   -2.6488    0.0000 C   0  0  0  0  0  0  0  0  0  0  0  0
    6.1808    3.3512    0.0000 C   0  0  0  0  0  0  0  0  0  0  0  0
    7.0468    1.8512    0.0000 C   0  0  0  0  0  0  0  0  0  0  0  0
    5.3147    1.8512    0.0000 C   0  0  0  0  0  0  0  0  0  0  0  0
    7.0468    2.8512    0.0000 C   0  0  0  0  0  0  0  0  0  0  0  0
    5.3147    2.8512    0.0000 C   0  0  0  0  0  0  0  0  0  0  0  0
    2.0000   -3.4852    0.0000 C   0  0  0  0  0  0  0  0  0  0  0  0
    2.5000   -4.3512    0.0000 C   0  0  0  0  0  0  0  0  0  0  0  0
    6.1808    4.3512    0.0000 C   0  0  0  0  0  0  0  0  0  0  0  0
    3.9118   -1.3388    0.0000 H   0  0  0  0  0  0  0  0  0  0  0  0
    5.3147   -3.7688    0.0000 H   0  0  0  0  0  0  0  0  0  0  0  0
    6.7177   -1.3388    0.0000 H   0  0  0  0  0  0  0  0  0  0  0  0
    2.5402   -2.1356    0.0000 H   0  0  0  0  0  0  0  0  0  0  0  0
    3.9389   -4.5582    0.0000 H   0  0  0  0  0  0  0  0  0  0  0  0
    6.7177    0.0412    0.0000 H   0  0  0  0  0  0  0  0  0  0  0  0
    6.7177   -2.9588    0.0000 H   0  0  0  0  0  0  0  0  0  0  0  0
    4.7778    1.5412    0.0000 H   0  0  0  0  0  0  0  0  0  0  0  0
    7.5837    3.1612    0.0000 H   0  0  0  0  0  0  0  0  0  0  0  0
    4.7778    3.1612    0.0000 H   0  0  0  0  0  0  0  0  0  0  0  0
    1.3834   -3.4204    0.0000 H   0  0  0  0  0  0  0  0  0  0  0  0
    2.2478   -4.9176    0.0000 H   0  0  0  0  0  0  0  0  0  0  0  0
    6.8008    4.3512    0.0000 H   0  0  0  0  0  0  0  0  0  0  0  0
    6.1808    4.9712    0.0000 H   0  0  0  0  0  0  0  0  0  0  0  0
    5.5608    4.3512    0.0000 H   0  0  0  0  0  0  0  0  0  0  0  0
  1 16  1  0  0  0  0
  2 10  2  0  0  0  0
  3  5  1  0  0  0  0
  3 12  1  0  0  0  0
  3 13  1  0  0  0  0
  4  9  1  0  0  0  0
  4 10  1  0  0  0  0
  4 28  1  0  0  0  0
  5  7  1  0  0  0  0
  5  8  2  0  0  0  0
  6  7  2  0  0  0  0
  6 10  1  0  0  0  0
  6 11  1  0  0  0  0
  7 23  1  0  0  0  0
  8 14  1  0  0  0  0
  8 24  1  0  0  0  0
  9 16  2  0  0  0  0
  9 17  1  0  0  0  0
 11 14  2  0  0  0  0
 11 25  1  0  0  0  0
 12 20  2  0  0  0  0
 12 26  1  0  0  0  0
 13 21  2  0  0  0  0
 13 27  1  0  0  0  0
 14 29  1  0  0  0  0
 15 18  2  0  0  0  0
 15 19  1  0  0  0  0
 15 22  1  0  0  0  0
 16 18  1  0  0  0  0
 17 19  2  0  0  0  0
 17 30  1  0  0  0  0
 18 31  1  0  0  0  0
 19 32  1  0  0  0  0
 20 21  1  0  0  0  0
 20 33  1  0  0  0  0
 21 34  1  0  0  0  0
 22 35  1  0  0  0  0
 22 36  1  0  0  0  0
 22 37  1  0  0  0  0
M  END
> <PUBCHEM_COMPOUND_CID>
16321286

> <PUBCHEM_COMPOUND_CANONICALIZED>
1

> <PUBCHEM_CACTVS_COMPLEXITY>
383

> <PUBCHEM_CACTVS_HBOND_ACCEPTOR>
1

> <PUBCHEM_CACTVS_HBOND_DONOR>
1

> <PUBCHEM_CACTVS_ROTATABLE_BOND>
3

> <PUBCHEM_CACTVS_SUBSKEYS>
AAADccB7IAAEAAAAAAAAAAAAAAAAAWAAAAAwYAAAAAAAAAAB0AAAHgIQAAAADArBmiQ+wJPMEACoAjV3VACCgCA1ByAI2CE4ZtgIIPLBl5HEIQhglADIyYcciACOCAAAYAAAABAQAADAAAAAIAAAAAAAAA==

> <PUBCHEM_IUPAC_OPENEYE_NAME>
N-(2-chloro-4-methyl-phenyl)-3-pyrrol-1-yl-benzamide

> <PUBCHEM_IUPAC_CAS_NAME>
N-(2-chloro-4-methylphenyl)-3-(1-pyrrolyl)benzamide

> <PUBCHEM_IUPAC_NAME>
N-(2-chloro-4-methylphenyl)-3-pyrrol-1-ylbenzamide

> <PUBCHEM_IUPAC_SYSTEMATIC_NAME>
N-(2-chloranyl-4-methyl-phenyl)-3-pyrrol-1-yl-benzamide

> <PUBCHEM_IUPAC_TRADITIONAL_NAME>
N-(2-chloro-4-methyl-phenyl)-3-pyrrol-1-yl-benzamide

> <PUBCHEM_IUPAC_INCHI>
InChI=1S/C18H15ClN2O/c1-13-7-8-17(16(19)11-13)20-18(22)14-5-4-6-15(12-14)21-9-2-3-10-21/h2-12H,1H3,(H,20,22)

> <PUBCHEM_IUPAC_INCHIKEY>
WQJYQYSPKYPLEV-UHFFFAOYSA-N

> <PUBCHEM_XLOGP3>
4.5

> <PUBCHEM_EXACT_MASS>
310.087291

> <PUBCHEM_MOLECULAR_FORMULA>
C18H15ClN2O

> <PUBCHEM_MOLECULAR_WEIGHT>
310.7775

> <PUBCHEM_OPENEYE_CAN_SMILES>
CC1=CC(=C(C=C1)NC(=O)C2=CC(=CC=C2)N3C=CC=C3)Cl

> <PUBCHEM_OPENEYE_ISO_SMILES>
CC1=CC(=C(C=C1)NC(=O)C2=CC(=CC=C2)N3C=CC=C3)Cl

> <PUBCHEM_CACTVS_TPSA>
34

> <PUBCHEM_MONOISOTOPIC_WEIGHT>
310.087291

> <PUBCHEM_TOTAL_CHARGE>
0

> <PUBCHEM_HEAVY_ATOM_COUNT>
22

> <PUBCHEM_ATOM_DEF_STEREO_COUNT>
0

> <PUBCHEM_ATOM_UDEF_STEREO_COUNT>
0

> <PUBCHEM_BOND_DEF_STEREO_COUNT>
0

> <PUBCHEM_BOND_UDEF_STEREO_COUNT>
0

> <PUBCHEM_ISOTOPIC_ATOM_COUNT>
0

> <PUBCHEM_COMPONENT_COUNT>
1

> <PUBCHEM_CACTVS_TAUTO_COUNT>
2

> <PUBCHEM_COORDINATE_TYPE>
1
5
255

> <PUBCHEM_BONDANNOTATIONS>
11  14  8
12  20  8
13  21  8
15  18  8
15  19  8
16  18  8
17  19  8
20  21  8
3  12  8
3  13  8
5  7  8
5  8  8
6  11  8
6  7  8
8  14  8
9  16  8
9  17  8

$$$$
