52951686
  -OEChem-05181308072D

 33 35  0     0  0  0  0  0  0999 V2000
    2.0000    0.2073    0.0000 O   0  0  0  0  0  0  0  0  0  0  0  0
    6.3301   -1.2927    0.0000 C   0  0  0  0  0  0  0  0  0  0  0  0
    7.1962   -0.7927    0.0000 C   0  0  0  0  0  0  0  0  0  0  0  0
    8.9282   -0.7927    0.0000 C   0  0  0  0  0  0  0  0  0  0  0  0
    5.4641   -0.7927    0.0000 C   0  0  0  0  0  0  0  0  0  0  0  0
    8.0622   -1.2927    0.0000 C   0  0  0  0  0  0  0  0  0  0  0  0
    8.9282    0.2073    0.0000 C   0  0  0  0  0  0  0  0  0  0  0  0
    7.1962    0.2073    0.0000 C   0  0  0  0  0  0  0  0  0  0  0  0
    8.0622    0.7073    0.0000 C   0  0  0  0  0  0  0  0  0  0  0  0
    9.8222   -1.3273    0.0000 C   0  0  0  0  0  0  0  0  0  0  0  0
    5.4641    0.2073    0.0000 C   0  0  0  0  0  0  0  0  0  0  0  0
    4.5981   -1.2927    0.0000 C   0  0  0  0  0  0  0  0  0  0  0  0
    9.8222    0.7420    0.0000 C   0  0  0  0  0  0  0  0  0  0  0  0
   10.7282   -0.8135    0.0000 C   0  0  0  0  0  0  0  0  0  0  0  0
    4.5981    0.7073    0.0000 C   0  0  0  0  0  0  0  0  0  0  0  0
    3.7320   -0.7927    0.0000 C   0  0  0  0  0  0  0  0  0  0  0  0
   10.7282    0.2281    0.0000 C   0  0  0  0  0  0  0  0  0  0  0  0
    3.7320    0.2073    0.0000 C   0  0  0  0  0  0  0  0  0  0  0  0
    2.8660    0.7073    0.0000 C   0  0  0  0  0  0  0  0  0  0  0  0
    5.9316   -1.7676    0.0000 H   0  0  0  0  0  0  0  0  0  0  0  0
    6.7287   -1.7676    0.0000 H   0  0  0  0  0  0  0  0  0  0  0  0
    8.0622   -1.9127    0.0000 H   0  0  0  0  0  0  0  0  0  0  0  0
    6.6592    0.5173    0.0000 H   0  0  0  0  0  0  0  0  0  0  0  0
    8.0622    1.3273    0.0000 H   0  0  0  0  0  0  0  0  0  0  0  0
    9.8150   -1.9473    0.0000 H   0  0  0  0  0  0  0  0  0  0  0  0
    6.0010    0.5173    0.0000 H   0  0  0  0  0  0  0  0  0  0  0  0
    4.5981   -1.9127    0.0000 H   0  0  0  0  0  0  0  0  0  0  0  0
    9.8150    1.3620    0.0000 H   0  0  0  0  0  0  0  0  0  0  0  0
   11.2639   -1.1256    0.0000 H   0  0  0  0  0  0  0  0  0  0  0  0
    4.5981    1.3273    0.0000 H   0  0  0  0  0  0  0  0  0  0  0  0
    3.1951   -1.1027    0.0000 H   0  0  0  0  0  0  0  0  0  0  0  0
   11.2639    0.5402    0.0000 H   0  0  0  0  0  0  0  0  0  0  0  0
    2.8660    1.3273    0.0000 H   0  0  0  0  0  0  0  0  0  0  0  0
  1 19  2  0  0  0  0
  2  3  1  0  0  0  0
  2  5  1  0  0  0  0
  2 20  1  0  0  0  0
  2 21  1  0  0  0  0
  3  6  2  0  0  0  0
  3  8  1  0  0  0  0
  4  6  1  0  0  0  0
  4  7  1  0  0  0  0
  4 10  2  0  0  0  0
  5 11  2  0  0  0  0
  5 12  1  0  0  0  0
  6 22  1  0  0  0  0
  7  9  1  0  0  0  0
  7 13  2  0  0  0  0
  8  9  2  0  0  0  0
  8 23  1  0  0  0  0
  9 24  1  0  0  0  0
 10 14  1  0  0  0  0
 10 25  1  0  0  0  0
 11 15  1  0  0  0  0
 11 26  1  0  0  0  0
 12 16  2  0  0  0  0
 12 27  1  0  0  0  0
 13 17  1  0  0  0  0
 13 28  1  0  0  0  0
 14 17  2  0  0  0  0
 14 29  1  0  0  0  0
 15 18  2  0  0  0  0
 15 30  1  0  0  0  0
 16 18  1  0  0  0  0
 16 31  1  0  0  0  0
 17 32  1  0  0  0  0
 18 19  1  0  0  0  0
 19 33  1  0  0  0  0
M  END
> <PUBCHEM_COMPOUND_CID>
52951686

> <PUBCHEM_COMPOUND_CANONICALIZED>
1

> <PUBCHEM_CACTVS_COMPLEXITY>
290

> <PUBCHEM_CACTVS_HBOND_ACCEPTOR>
1

> <PUBCHEM_CACTVS_HBOND_DONOR>
0

> <PUBCHEM_CACTVS_ROTATABLE_BOND>
3

> <PUBCHEM_CACTVS_SUBSKEYS>
AAADccB4IAAAAAAAAAAAAAAAAAAAAAAAAAAwYMAAAAAAAADBVAAAGgAAAAAADACgmAIwAMAAAACIAihSgAACAAAkAAAIiAEAAMgIIDKAFRCAIQAggAAIiYcIiMCOwAACAAAQAACAAAQAACAAAAAAAAAAAA==

> <PUBCHEM_IUPAC_OPENEYE_NAME>
4-(2-naphthylmethyl)benzaldehyde

> <PUBCHEM_IUPAC_CAS_NAME>
4-(2-naphthalenylmethyl)benzaldehyde

> <PUBCHEM_IUPAC_NAME>
4-(naphthalen-2-ylmethyl)benzaldehyde

> <PUBCHEM_IUPAC_SYSTEMATIC_NAME>
4-(naphthalen-2-ylmethyl)benzaldehyde

> <PUBCHEM_IUPAC_TRADITIONAL_NAME>
4-(2-naphthylmethyl)benzaldehyde

> <PUBCHEM_IUPAC_INCHI>
InChI=1S/C18H14O/c19-13-15-7-5-14(6-8-15)11-16-9-10-17-3-1-2-4-18(17)12-16/h1-10,12-13H,11H2

> <PUBCHEM_IUPAC_INCHIKEY>
PUZCLIMJPNRLSU-UHFFFAOYSA-N

> <PUBCHEM_XLOGP3>
5

> <PUBCHEM_EXACT_MASS>
246.104465

> <PUBCHEM_MOLECULAR_FORMULA>
C18H14O

> <PUBCHEM_MOLECULAR_WEIGHT>
246.30316

> <PUBCHEM_OPENEYE_CAN_SMILES>
C1=CC=C2C=C(C=CC2=C1)CC3=CC=C(C=C3)C=O

> <PUBCHEM_OPENEYE_ISO_SMILES>
C1=CC=C2C=C(C=CC2=C1)CC3=CC=C(C=C3)C=O

> <PUBCHEM_CACTVS_TPSA>
17.1

> <PUBCHEM_MONOISOTOPIC_WEIGHT>
246.104465

> <PUBCHEM_TOTAL_CHARGE>
0

> <PUBCHEM_HEAVY_ATOM_COUNT>
19

> <PUBCHEM_ATOM_DEF_STEREO_COUNT>
0

> <PUBCHEM_ATOM_UDEF_STEREO_COUNT>
0

> <PUBCHEM_BOND_DEF_STEREO_COUNT>
0

> <PUBCHEM_BOND_UDEF_STEREO_COUNT>
0

> <PUBCHEM_ISOTOPIC_ATOM_COUNT>
0

> <PUBCHEM_COMPONENT_COUNT>
1

> <PUBCHEM_CACTVS_TAUTO_COUNT>
4

> <PUBCHEM_COORDINATE_TYPE>
1
5
255

> <PUBCHEM_BONDANNOTATIONS>
10  14  8
11  15  8
12  16  8
13  17  8
14  17  8
15  18  8
16  18  8
3  6  8
3  8  8
4  10  8
4  6  8
4  7  8
5  11  8
5  12  8
7  13  8
7  9  8
8  9  8

$$$$
52951800
  -OEChem-05181308072D

 36 38  0     0  0  0  0  0  0999 V2000
    5.4641    0.1550    0.0000 N   0  3  0  0  0  0  0  0  0  0  0  0
    5.4641   -2.8450    0.0000 N   0  0  0  0  0  0  0  0  0  0  0  0
    5.4641    1.1550    0.0000 C   0  0  0  0  0  0  0  0  0  0  0  0
    6.3301   -0.3450    0.0000 C   0  0  0  0  0  0  0  0  0  0  0  0
    6.3301   -1.3450    0.0000 C   0  0  0  0  0  0  0  0  0  0  0  0
    4.5981    1.6550    0.0000 C   0  0  0  0  0  0  0  0  0  0  0  0
    4.5981   -0.3450    0.0000 C   0  0  0  0  0  0  0  0  0  0  0  0
    5.4641   -1.8450    0.0000 C   0  0  0  0  0  0  0  0  0  0  0  0
    7.2241    0.1897    0.0000 C   0  0  0  0  0  0  0  0  0  0  0  0
    4.5981   -1.3450    0.0000 C   0  0  0  0  0  0  0  0  0  0  0  0
    7.2241   -1.8797    0.0000 C   0  0  0  0  0  0  0  0  0  0  0  0
    4.5981    2.6550    0.0000 C   0  0  0  0  0  0  0  0  0  0  0  0
    3.7320    1.1550    0.0000 C   0  0  0  0  0  0  0  0  0  0  0  0
    8.1301   -0.3242    0.0000 C   0  0  0  0  0  0  0  0  0  0  0  0
    8.1301   -1.3658    0.0000 C   0  0  0  0  0  0  0  0  0  0  0  0
    2.8660    2.6550    0.0000 C   0  0  0  0  0  0  0  0  0  0  0  0
    3.7320    3.1550    0.0000 C   0  0  0  0  0  0  0  0  0  0  0  0
    2.8660    1.6550    0.0000 C   0  0  0  0  0  0  0  0  0  0  0  0
    2.0000    3.1550    0.0000 C   0  0  0  0  0  0  0  0  0  0  0  0
    6.0747    1.0473    0.0000 H   0  0  0  0  0  0  0  0  0  0  0  0
    5.6762    1.7376    0.0000 H   0  0  0  0  0  0  0  0  0  0  0  0
    4.0611   -0.0350    0.0000 H   0  0  0  0  0  0  0  0  0  0  0  0
    7.2169    0.8096    0.0000 H   0  0  0  0  0  0  0  0  0  0  0  0
    4.0611   -1.6550    0.0000 H   0  0  0  0  0  0  0  0  0  0  0  0
    7.2169   -2.4996    0.0000 H   0  0  0  0  0  0  0  0  0  0  0  0
    5.1350    2.9650    0.0000 H   0  0  0  0  0  0  0  0  0  0  0  0
    3.7320    0.5350    0.0000 H   0  0  0  0  0  0  0  0  0  0  0  0
    8.6659   -0.0121    0.0000 H   0  0  0  0  0  0  0  0  0  0  0  0
    8.6659   -1.6779    0.0000 H   0  0  0  0  0  0  0  0  0  0  0  0
    3.7320    3.7750    0.0000 H   0  0  0  0  0  0  0  0  0  0  0  0
    2.3291    1.3450    0.0000 H   0  0  0  0  0  0  0  0  0  0  0  0
    4.9272   -3.1550    0.0000 H   0  0  0  0  0  0  0  0  0  0  0  0
    6.0010   -3.1550    0.0000 H   0  0  0  0  0  0  0  0  0  0  0  0
    2.3100    3.6919    0.0000 H   0  0  0  0  0  0  0  0  0  0  0  0
    1.4631    3.4650    0.0000 H   0  0  0  0  0  0  0  0  0  0  0  0
    1.6900    2.6181    0.0000 H   0  0  0  0  0  0  0  0  0  0  0  0
  1  3  1  0  0  0  0
  1  4  1  0  0  0  0
  1  7  2  0  0  0  0
  2  8  1  0  0  0  0
  2 32  1  0  0  0  0
  2 33  1  0  0  0  0
  3  6  1  0  0  0  0
  3 20  1  0  0  0  0
  3 21  1  0  0  0  0
  4  5  1  0  0  0  0
  4  9  2  0  0  0  0
  5  8  1  0  0  0  0
  5 11  2  0  0  0  0
  6 12  2  0  0  0  0
  6 13  1  0  0  0  0
  7 10  1  0  0  0  0
  7 22  1  0  0  0  0
  8 10  2  0  0  0  0
  9 14  1  0  0  0  0
  9 23  1  0  0  0  0
 10 24  1  0  0  0  0
 11 15  1  0  0  0  0
 11 25  1  0  0  0  0
 12 17  1  0  0  0  0
 12 26  1  0  0  0  0
 13 18  2  0  0  0  0
 13 27  1  0  0  0  0
 14 15  2  0  0  0  0
 14 28  1  0  0  0  0
 15 29  1  0  0  0  0
 16 17  2  0  0  0  0
 16 18  1  0  0  0  0
 16 19  1  0  0  0  0
 17 30  1  0  0  0  0
 18 31  1  0  0  0  0
 19 34  1  0  0  0  0
 19 35  1  0  0  0  0
 19 36  1  0  0  0  0
M  CHG  1   1   1
M  END
> <PUBCHEM_COMPOUND_CID>
52951800

> <PUBCHEM_COMPOUND_CANONICALIZED>
1

> <PUBCHEM_CACTVS_COMPLEXITY>
283

> <PUBCHEM_CACTVS_HBOND_ACCEPTOR>
1

> <PUBCHEM_CACTVS_HBOND_DONOR>
1

> <PUBCHEM_CACTVS_ROTATABLE_BOND>
2

> <PUBCHEM_CACTVS_SUBSKEYS>
AAADceB7AAAAAAAAAAAAAAAAAAAAAAAAAAA8YIAAAAAAAACx9AAAHAAQAAAADAjBHgQ+wPNMEACgAzRnRACCgCAxAiAI2CA4ZJgIIOLA0dGEJAhgkADIyAcQgIAOQAAAAAACAACAAAAAAAQAAAAAAAAAAA==

> <PUBCHEM_IUPAC_OPENEYE_NAME>
1-(p-tolylmethyl)quinolin-1-ium-4-amine

> <PUBCHEM_IUPAC_CAS_NAME>
1-[(4-methylphenyl)methyl]-4-quinolin-1-iumamine

> <PUBCHEM_IUPAC_NAME>
1-[(4-methylphenyl)methyl]quinolin-1-ium-4-amine

> <PUBCHEM_IUPAC_SYSTEMATIC_NAME>
1-[(4-methylphenyl)methyl]quinolin-1-ium-4-amine

> <PUBCHEM_IUPAC_TRADITIONAL_NAME>
[1-(4-methylbenzyl)quinolin-1-ium-4-yl]amine

> <PUBCHEM_IUPAC_INCHI>
InChI=1S/C17H16N2/c1-13-6-8-14(9-7-13)12-19-11-10-16(18)15-4-2-3-5-17(15)19/h2-11,18H,12H2,1H3/p+1

> <PUBCHEM_IUPAC_INCHIKEY>
XYEWNYBUMALDPB-UHFFFAOYSA-O

> <PUBCHEM_XLOGP3>
3.1

> <PUBCHEM_EXACT_MASS>
249.139174

> <PUBCHEM_MOLECULAR_FORMULA>
C17H17N2+

> <PUBCHEM_MOLECULAR_WEIGHT>
249.33028

> <PUBCHEM_OPENEYE_CAN_SMILES>
CC1=CC=C(C=C1)C[N+]2=CC=C(C3=CC=CC=C32)N

> <PUBCHEM_OPENEYE_ISO_SMILES>
CC1=CC=C(C=C1)C[N+]2=CC=C(C3=CC=CC=C32)N

> <PUBCHEM_CACTVS_TPSA>
29.9

> <PUBCHEM_MONOISOTOPIC_WEIGHT>
249.139174

> <PUBCHEM_TOTAL_CHARGE>
1

> <PUBCHEM_HEAVY_ATOM_COUNT>
19

> <PUBCHEM_ATOM_DEF_STEREO_COUNT>
0

> <PUBCHEM_ATOM_UDEF_STEREO_COUNT>
0

> <PUBCHEM_BOND_DEF_STEREO_COUNT>
0

> <PUBCHEM_BOND_UDEF_STEREO_COUNT>
0

> <PUBCHEM_ISOTOPIC_ATOM_COUNT>
0

> <PUBCHEM_COMPONENT_COUNT>
1

> <PUBCHEM_CACTVS_TAUTO_COUNT>
2

> <PUBCHEM_COORDINATE_TYPE>
1
5
255

> <PUBCHEM_BONDANNOTATIONS>
1  4  8
1  7  8
11  15  8
12  17  8
13  18  8
14  15  8
16  17  8
16  18  8
4  5  8
4  9  8
5  11  8
5  8  8
6  12  8
6  13  8
7  10  8
8  10  8
9  14  8

$$$$
52952678
  -OEChem-05181308072D

 34 36  0     0  0  0  0  0  0999 V2000
    6.3246   -0.0427    0.0000 Cl  0  0  0  0  0  0  0  0  0  0  0  0
    4.3211   -2.8089    0.0000 O   0  0  0  0  0  0  0  0  0  0  0  0
    4.6783    0.4954    0.0000 N   0  0  0  0  0  0  0  0  0  0  0  0
    3.7320    0.1907    0.0000 C   0  0  0  0  0  0  0  0  0  0  0  0
    3.7320   -0.8093    0.0000 C   0  0  0  0  0  0  0  0  0  0  0  0
    4.9889    1.4459    0.0000 C   0  0  0  0  0  0  0  0  0  0  0  0
    4.6783   -1.1141    0.0000 C   0  0  0  0  0  0  0  0  0  0  0  0
    5.2619   -0.3093    0.0000 C   0  0  0  0  0  0  0  0  0  0  0  0
    5.9674    1.6521    0.0000 C   0  0  0  0  0  0  0  0  0  0  0  0
    2.8660    0.6907    0.0000 C   0  0  0  0  0  0  0  0  0  0  0  0
    2.8660   -1.3093    0.0000 C   0  0  0  0  0  0  0  0  0  0  0  0
    4.9889   -2.0646    0.0000 C   0  0  0  0  0  0  0  0  0  0  0  0
    2.0000    0.1907    0.0000 C   0  0  0  0  0  0  0  0  0  0  0  0
    2.0000   -0.8093    0.0000 C   0  0  0  0  0  0  0  0  0  0  0  0
    6.6353    0.9078    0.0000 C   0  0  0  0  0  0  0  0  0  0  0  0
    6.2781    2.6027    0.0000 C   0  0  0  0  0  0  0  0  0  0  0  0
    5.9674   -2.2708    0.0000 C   0  0  0  0  0  0  0  0  0  0  0  0
    7.6138    1.1141    0.0000 C   0  0  0  0  0  0  0  0  0  0  0  0
    7.2566    2.8089    0.0000 C   0  0  0  0  0  0  0  0  0  0  0  0
    7.9244    2.0646    0.0000 C   0  0  0  0  0  0  0  0  0  0  0  0
    4.9684    2.0656    0.0000 H   0  0  0  0  0  0  0  0  0  0  0  0
    4.3751    1.5333    0.0000 H   0  0  0  0  0  0  0  0  0  0  0  0
    5.8819   -0.3093    0.0000 H   0  0  0  0  0  0  0  0  0  0  0  0
    2.8660    1.3107    0.0000 H   0  0  0  0  0  0  0  0  0  0  0  0
    2.8660   -1.9293    0.0000 H   0  0  0  0  0  0  0  0  0  0  0  0
    1.4631    0.5007    0.0000 H   0  0  0  0  0  0  0  0  0  0  0  0
    1.4631   -1.1193    0.0000 H   0  0  0  0  0  0  0  0  0  0  0  0
    5.8640    3.0641    0.0000 H   0  0  0  0  0  0  0  0  0  0  0  0
    5.8396   -2.8775    0.0000 H   0  0  0  0  0  0  0  0  0  0  0  0
    6.5741   -2.3986    0.0000 H   0  0  0  0  0  0  0  0  0  0  0  0
    6.0953   -1.6641    0.0000 H   0  0  0  0  0  0  0  0  0  0  0  0
    8.0279    0.6526    0.0000 H   0  0  0  0  0  0  0  0  0  0  0  0
    7.4492    3.3982    0.0000 H   0  0  0  0  0  0  0  0  0  0  0  0
    8.5311    2.1924    0.0000 H   0  0  0  0  0  0  0  0  0  0  0  0
  1 15  1  0  0  0  0
  2 12  2  0  0  0  0
  3  4  1  0  0  0  0
  3  6  1  0  0  0  0
  3  8  1  0  0  0  0
  4  5  1  0  0  0  0
  4 10  2  0  0  0  0
  5  7  1  0  0  0  0
  5 11  2  0  0  0  0
  6  9  1  0  0  0  0
  6 21  1  0  0  0  0
  6 22  1  0  0  0  0
  7  8  2  0  0  0  0
  7 12  1  0  0  0  0
  8 23  1  0  0  0  0
  9 15  1  0  0  0  0
  9 16  2  0  0  0  0
 10 13  1  0  0  0  0
 10 24  1  0  0  0  0
 11 14  1  0  0  0  0
 11 25  1  0  0  0  0
 12 17  1  0  0  0  0
 13 14  2  0  0  0  0
 13 26  1  0  0  0  0
 14 27  1  0  0  0  0
 15 18  2  0  0  0  0
 16 19  1  0  0  0  0
 16 28  1  0  0  0  0
 17 29  1  0  0  0  0
 17 30  1  0  0  0  0
 17 31  1  0  0  0  0
 18 20  1  0  0  0  0
 18 32  1  0  0  0  0
 19 20  2  0  0  0  0
 19 33  1  0  0  0  0
 20 34  1  0  0  0  0
M  END
> <PUBCHEM_COMPOUND_CID>
52952678

> <PUBCHEM_COMPOUND_CANONICALIZED>
1

> <PUBCHEM_CACTVS_COMPLEXITY>
359

> <PUBCHEM_CACTVS_HBOND_ACCEPTOR>
1

> <PUBCHEM_CACTVS_HBOND_DONOR>
0

> <PUBCHEM_CACTVS_ROTATABLE_BOND>
3

> <PUBCHEM_CACTVS_SUBSKEYS>
AAADccB6IAAEAAAAAAAAAAAAAAAAAWAAAAAwYAAAAAAAAFgB9AAAHgIAAAAADA7BniQ+wPMMEACoA7R3RACCgCA1ByAI2CE4ZtgIIPrBl5GEIYhggADIyccciMCOgAAAAAADAAAAAAAAAAYAAAAAAAAAAA==

> <PUBCHEM_IUPAC_OPENEYE_NAME>
1-[1-[(2-chlorophenyl)methyl]indol-3-yl]ethanone

> <PUBCHEM_IUPAC_CAS_NAME>
1-[1-[(2-chlorophenyl)methyl]-3-indolyl]ethanone

> <PUBCHEM_IUPAC_NAME>
1-[1-[(2-chlorophenyl)methyl]indol-3-yl]ethanone

> <PUBCHEM_IUPAC_SYSTEMATIC_NAME>
1-[1-[(2-chlorophenyl)methyl]indol-3-yl]ethanone

> <PUBCHEM_IUPAC_TRADITIONAL_NAME>
1-[1-(2-chlorobenzyl)indol-3-yl]ethanone

> <PUBCHEM_IUPAC_INCHI>
InChI=1S/C17H14ClNO/c1-12(20)15-11-19(17-9-5-3-7-14(15)17)10-13-6-2-4-8-16(13)18/h2-9,11H,10H2,1H3

> <PUBCHEM_IUPAC_INCHIKEY>
QMDCLURQQXFDBE-UHFFFAOYSA-N

> <PUBCHEM_XLOGP3>
4.2

> <PUBCHEM_EXACT_MASS>
283.076392

> <PUBCHEM_MOLECULAR_FORMULA>
C17H14ClNO

> <PUBCHEM_MOLECULAR_WEIGHT>
283.75216

> <PUBCHEM_OPENEYE_CAN_SMILES>
CC(=O)C1=CN(C2=CC=CC=C21)CC3=CC=CC=C3Cl

> <PUBCHEM_OPENEYE_ISO_SMILES>
CC(=O)C1=CN(C2=CC=CC=C21)CC3=CC=CC=C3Cl

> <PUBCHEM_CACTVS_TPSA>
22

> <PUBCHEM_MONOISOTOPIC_WEIGHT>
283.076392

> <PUBCHEM_TOTAL_CHARGE>
0

> <PUBCHEM_HEAVY_ATOM_COUNT>
20

> <PUBCHEM_ATOM_DEF_STEREO_COUNT>
0

> <PUBCHEM_ATOM_UDEF_STEREO_COUNT>
0

> <PUBCHEM_BOND_DEF_STEREO_COUNT>
0

> <PUBCHEM_BOND_UDEF_STEREO_COUNT>
0

> <PUBCHEM_ISOTOPIC_ATOM_COUNT>
0

> <PUBCHEM_COMPONENT_COUNT>
1

> <PUBCHEM_CACTVS_TAUTO_COUNT>
2

> <PUBCHEM_COORDINATE_TYPE>
1
5
255

> <PUBCHEM_BONDANNOTATIONS>
10  13  8
11  14  8
13  14  8
15  18  8
16  19  8
18  20  8
19  20  8
3  4  8
3  8  8
4  10  8
4  5  8
5  11  8
5  7  8
7  8  8
9  15  8
9  16  8

$$$$
52952679
  -OEChem-05181308072D

 34 36  0     0  0  0  0  0  0999 V2000
    8.2816    0.3698    0.0000 Cl  0  0  0  0  0  0  0  0  0  0  0  0
    4.3211   -2.8089    0.0000 O   0  0  0  0  0  0  0  0  0  0  0  0
    4.6783    0.4954    0.0000 N   0  0  0  0  0  0  0  0  0  0  0  0
    3.7320    0.1907    0.0000 C   0  0  0  0  0  0  0  0  0  0  0  0
    3.7320   -0.8093    0.0000 C   0  0  0  0  0  0  0  0  0  0  0  0
    4.9889    1.4459    0.0000 C   0  0  0  0  0  0  0  0  0  0  0  0
    4.6783   -1.1141    0.0000 C   0  0  0  0  0  0  0  0  0  0  0  0
    5.2619   -0.3093    0.0000 C   0  0  0  0  0  0  0  0  0  0  0  0
    5.9674    1.6521    0.0000 C   0  0  0  0  0  0  0  0  0  0  0  0
    2.8660    0.6907    0.0000 C   0  0  0  0  0  0  0  0  0  0  0  0
    2.8660   -1.3093    0.0000 C   0  0  0  0  0  0  0  0  0  0  0  0
    4.9889   -2.0646    0.0000 C   0  0  0  0  0  0  0  0  0  0  0  0
    2.0000    0.1907    0.0000 C   0  0  0  0  0  0  0  0  0  0  0  0
    2.0000   -0.8093    0.0000 C   0  0  0  0  0  0  0  0  0  0  0  0
    6.6353    0.9078    0.0000 C   0  0  0  0  0  0  0  0  0  0  0  0
    6.2781    2.6027    0.0000 C   0  0  0  0  0  0  0  0  0  0  0  0
    5.9674   -2.2708    0.0000 C   0  0  0  0  0  0  0  0  0  0  0  0
    7.6138    1.1141    0.0000 C   0  0  0  0  0  0  0  0  0  0  0  0
    7.2566    2.8089    0.0000 C   0  0  0  0  0  0  0  0  0  0  0  0
    7.9244    2.0646    0.0000 C   0  0  0  0  0  0  0  0  0  0  0  0
    4.9684    2.0656    0.0000 H   0  0  0  0  0  0  0  0  0  0  0  0
    4.3751    1.5333    0.0000 H   0  0  0  0  0  0  0  0  0  0  0  0
    5.8819   -0.3093    0.0000 H   0  0  0  0  0  0  0  0  0  0  0  0
    2.8660    1.3107    0.0000 H   0  0  0  0  0  0  0  0  0  0  0  0
    2.8660   -1.9293    0.0000 H   0  0  0  0  0  0  0  0  0  0  0  0
    1.4631    0.5007    0.0000 H   0  0  0  0  0  0  0  0  0  0  0  0
    1.4631   -1.1193    0.0000 H   0  0  0  0  0  0  0  0  0  0  0  0
    6.4427    0.3185    0.0000 H   0  0  0  0  0  0  0  0  0  0  0  0
    5.8640    3.0641    0.0000 H   0  0  0  0  0  0  0  0  0  0  0  0
    5.8396   -2.8775    0.0000 H   0  0  0  0  0  0  0  0  0  0  0  0
    6.5741   -2.3986    0.0000 H   0  0  0  0  0  0  0  0  0  0  0  0
    6.0953   -1.6641    0.0000 H   0  0  0  0  0  0  0  0  0  0  0  0
    7.4492    3.3982    0.0000 H   0  0  0  0  0  0  0  0  0  0  0  0
    8.5311    2.1924    0.0000 H   0  0  0  0  0  0  0  0  0  0  0  0
  1 18  1  0  0  0  0
  2 12  2  0  0  0  0
  3  4  1  0  0  0  0
  3  6  1  0  0  0  0
  3  8  1  0  0  0  0
  4  5  1  0  0  0  0
  4 10  2  0  0  0  0
  5  7  1  0  0  0  0
  5 11  2  0  0  0  0
  6  9  1  0  0  0  0
  6 21  1  0  0  0  0
  6 22  1  0  0  0  0
  7  8  2  0  0  0  0
  7 12  1  0  0  0  0
  8 23  1  0  0  0  0
  9 15  2  0  0  0  0
  9 16  1  0  0  0  0
 10 13  1  0  0  0  0
 10 24  1  0  0  0  0
 11 14  1  0  0  0  0
 11 25  1  0  0  0  0
 12 17  1  0  0  0  0
 13 14  2  0  0  0  0
 13 26  1  0  0  0  0
 14 27  1  0  0  0  0
 15 18  1  0  0  0  0
 15 28  1  0  0  0  0
 16 19  2  0  0  0  0
 16 29  1  0  0  0  0
 17 30  1  0  0  0  0
 17 31  1  0  0  0  0
 17 32  1  0  0  0  0
 18 20  2  0  0  0  0
 19 20  1  0  0  0  0
 19 33  1  0  0  0  0
 20 34  1  0  0  0  0
M  END
> <PUBCHEM_COMPOUND_CID>
52952679

> <PUBCHEM_COMPOUND_CANONICALIZED>
1

> <PUBCHEM_CACTVS_COMPLEXITY>
359

> <PUBCHEM_CACTVS_HBOND_ACCEPTOR>
1

> <PUBCHEM_CACTVS_HBOND_DONOR>
0

> <PUBCHEM_CACTVS_ROTATABLE_BOND>
3

> <PUBCHEM_CACTVS_SUBSKEYS>
AAADccB6IAAEAAAAAAAAAAAAAAAAAWAAAAAwYAAAAAAAAFgB9AAAHgIAAAAADA7BniQ+wPMMEACoA7R3RACCgCA1ByAI2CE4ZtgIIPrBl5GEIYhggADIyccciMCOgAAAIAACAAAAAABAAAQAAAAAAAAAAA==

> <PUBCHEM_IUPAC_OPENEYE_NAME>
1-[1-[(3-chlorophenyl)methyl]indol-3-yl]ethanone

> <PUBCHEM_IUPAC_CAS_NAME>
1-[1-[(3-chlorophenyl)methyl]-3-indolyl]ethanone

> <PUBCHEM_IUPAC_NAME>
1-[1-[(3-chlorophenyl)methyl]indol-3-yl]ethanone

> <PUBCHEM_IUPAC_SYSTEMATIC_NAME>
1-[1-[(3-chlorophenyl)methyl]indol-3-yl]ethanone

> <PUBCHEM_IUPAC_TRADITIONAL_NAME>
1-[1-(3-chlorobenzyl)indol-3-yl]ethanone

> <PUBCHEM_IUPAC_INCHI>
InChI=1S/C17H14ClNO/c1-12(20)16-11-19(17-8-3-2-7-15(16)17)10-13-5-4-6-14(18)9-13/h2-9,11H,10H2,1H3

> <PUBCHEM_IUPAC_INCHIKEY>
WWXMEBXPRAOCKT-UHFFFAOYSA-N

> <PUBCHEM_XLOGP3>
4.2

> <PUBCHEM_EXACT_MASS>
283.076392

> <PUBCHEM_MOLECULAR_FORMULA>
C17H14ClNO

> <PUBCHEM_MOLECULAR_WEIGHT>
283.75216

> <PUBCHEM_OPENEYE_CAN_SMILES>
CC(=O)C1=CN(C2=CC=CC=C21)CC3=CC(=CC=C3)Cl

> <PUBCHEM_OPENEYE_ISO_SMILES>
CC(=O)C1=CN(C2=CC=CC=C21)CC3=CC(=CC=C3)Cl

> <PUBCHEM_CACTVS_TPSA>
22

> <PUBCHEM_MONOISOTOPIC_WEIGHT>
283.076392

> <PUBCHEM_TOTAL_CHARGE>
0

> <PUBCHEM_HEAVY_ATOM_COUNT>
20

> <PUBCHEM_ATOM_DEF_STEREO_COUNT>
0

> <PUBCHEM_ATOM_UDEF_STEREO_COUNT>
0

> <PUBCHEM_BOND_DEF_STEREO_COUNT>
0

> <PUBCHEM_BOND_UDEF_STEREO_COUNT>
0

> <PUBCHEM_ISOTOPIC_ATOM_COUNT>
0

> <PUBCHEM_COMPONENT_COUNT>
1

> <PUBCHEM_CACTVS_TAUTO_COUNT>
2

> <PUBCHEM_COORDINATE_TYPE>
1
5
255

> <PUBCHEM_BONDANNOTATIONS>
10  13  8
11  14  8
13  14  8
15  18  8
16  19  8
18  20  8
19  20  8
3  4  8
3  8  8
4  10  8
4  5  8
5  11  8
5  7  8
7  8  8
9  15  8
9  16  8

$$$$
52974254
  -OEChem-05181308072D

 49 52  0     1  0  0  0  0  0999 V2000
    7.1640    1.8849    0.0000 O   0  0  0  0  0  0  0  0  0  0  0  0
    6.5251   -0.3714    0.0000 C   0  0  1  0  0  0  0  0  0  0  0  0
    6.5251    0.6286    0.0000 C   0  0  1  0  0  0  0  0  0  0  0  0
    5.6591   -0.8714    0.0000 C   0  0  2  0  0  0  0  0  0  0  0  0
    4.7931   -0.3714    0.0000 C   0  0  1  0  0  0  0  0  0  0  0  0
    5.6591    1.1286    0.0000 C   0  0  0  0  0  0  0  0  0  0  0  0
    7.4714    0.9333    0.0000 C   0  0  1  0  0  0  0  0  0  0  0  0
    7.4714   -0.6762    0.0000 C   0  0  0  0  0  0  0  0  0  0  0  0
    4.7931    0.6286    0.0000 C   0  0  0  0  0  0  0  0  0  0  0  0
    3.8831   -0.8783    0.0000 C   0  0  1  0  0  0  0  0  0  0  0  0
    8.0550    0.1286    0.0000 C   0  0  0  0  0  0  0  0  0  0  0  0
    5.6752   -1.9130    0.0000 C   0  0  0  0  0  0  0  0  0  0  0  0
    6.5251    1.6286    0.0000 C   0  0  0  0  0  0  0  0  0  0  0  0
    3.8751   -1.9199    0.0000 C   0  0  0  0  0  0  0  0  0  0  0  0
    4.7771   -2.4407    0.0000 C   0  0  0  0  0  0  0  0  0  0  0  0
    2.9562   -0.3142    0.0000 C   0  0  0  0  0  0  0  0  0  0  0  0
    2.0084   -0.8422    0.0000 C   0  0  0  0  0  0  0  0  0  0  0  0
    8.2814    1.5197    0.0000 C   0  0  0  0  0  0  0  0  0  0  0  0
    2.9396   -2.4696    0.0000 C   0  0  0  0  0  0  0  0  0  0  0  0
    2.0000   -1.9271    0.0000 C   0  0  0  0  0  0  0  0  0  0  0  0
    9.0914    2.1061    0.0000 C   0  0  0  0  0  0  0  0  0  0  0  0
    6.6151   -1.2167    0.0000 H   0  0  0  0  0  0  0  0  0  0  0  0
    6.3985   -1.2908    0.0000 H   0  0  0  0  0  0  0  0  0  0  0  0
    5.5292    0.0536    0.0000 H   0  0  0  0  0  0  0  0  0  0  0  0
    6.0576    1.6035    0.0000 H   0  0  0  0  0  0  0  0  0  0  0  0
    5.2606    1.6035    0.0000 H   0  0  0  0  0  0  0  0  0  0  0  0
    7.2203   -1.2431    0.0000 H   0  0  0  0  0  0  0  0  0  0  0  0
    8.0087   -0.9854    0.0000 H   0  0  0  0  0  0  0  0  0  0  0  0
    4.5810    1.2112    0.0000 H   0  0  0  0  0  0  0  0  0  0  0  0
    4.1825    0.5209    0.0000 H   0  0  0  0  0  0  0  0  0  0  0  0
    3.8995   -0.0284    0.0000 H   0  0  0  0  0  0  0  0  0  0  0  0
    8.5158   -0.2862    0.0000 H   0  0  0  0  0  0  0  0  0  0  0  0
    8.5158    0.5433    0.0000 H   0  0  0  0  0  0  0  0  0  0  0  0
    5.8932   -2.4934    0.0000 H   0  0  0  0  0  0  0  0  0  0  0  0
    6.2843   -1.7974    0.0000 H   0  0  0  0  0  0  0  0  0  0  0  0
    7.1451    1.6286    0.0000 H   0  0  0  0  0  0  0  0  0  0  0  0
    6.5251    2.2486    0.0000 H   0  0  0  0  0  0  0  0  0  0  0  0
    5.9051    1.6286    0.0000 H   0  0  0  0  0  0  0  0  0  0  0  0
    4.3798   -2.9167    0.0000 H   0  0  0  0  0  0  0  0  0  0  0  0
    5.1781   -2.9136    0.0000 H   0  0  0  0  0  0  0  0  0  0  0  0
    3.3645    0.1524    0.0000 H   0  0  0  0  0  0  0  0  0  0  0  0
    2.5663    0.1678    0.0000 H   0  0  0  0  0  0  0  0  0  0  0  0
    1.8038   -0.2569    0.0000 H   0  0  0  0  0  0  0  0  0  0  0  0
    1.3967   -0.9435    0.0000 H   0  0  0  0  0  0  0  0  0  0  0  0
    7.5796    2.3449    0.0000 H   0  0  0  0  0  0  0  0  0  0  0  0
    2.9420   -3.0896    0.0000 H   0  0  0  0  0  0  0  0  0  0  0  0
    1.3900   -1.8163    0.0000 H   0  0  0  0  0  0  0  0  0  0  0  0
    1.7864   -2.5092    0.0000 H   0  0  0  0  0  0  0  0  0  0  0  0
    9.5936    2.4696    0.0000 H   0  0  0  0  0  0  0  0  0  0  0  0
  7  1  1  6  0  0  0
  1 45  1  0  0  0  0
  2  3  1  0  0  0  0
  2  4  1  0  0  0  0
  2  8  1  0  0  0  0
  2 22  1  1  0  0  0
  3  6  1  0  0  0  0
  3  7  1  0  0  0  0
  3 13  1  6  0  0  0
  4  5  1  0  0  0  0
  4 12  1  0  0  0  0
  4 23  1  6  0  0  0
  5  9  1  0  0  0  0
  5 10  1  0  0  0  0
  5 24  1  1  0  0  0
  6  9  1  0  0  0  0
  6 25  1  0  0  0  0
  6 26  1  0  0  0  0
  7 11  1  0  0  0  0
  7 18  1  0  0  0  0
  8 11  1  0  0  0  0
  8 27  1  0  0  0  0
  8 28  1  0  0  0  0
  9 29  1  0  0  0  0
  9 30  1  0  0  0  0
 10 14  1  0  0  0  0
 10 16  1  0  0  0  0
 10 31  1  6  0  0  0
 11 32  1  0  0  0  0
 11 33  1  0  0  0  0
 12 15  1  0  0  0  0
 12 34  1  0  0  0  0
 12 35  1  0  0  0  0
 13 36  1  0  0  0  0
 13 37  1  0  0  0  0
 13 38  1  0  0  0  0
 14 15  1  0  0  0  0
 14 19  2  0  0  0  0
 15 39  1  0  0  0  0
 15 40  1  0  0  0  0
 16 17  1  0  0  0  0
 16 41  1  0  0  0  0
 16 42  1  0  0  0  0
 17 20  1  0  0  0  0
 17 43  1  0  0  0  0
 17 44  1  0  0  0  0
 18 21  3  0  0  0  0
 19 20  1  0  0  0  0
 19 46  1  0  0  0  0
 20 47  1  0  0  0  0
 20 48  1  0  0  0  0
 21 49  1  0  0  0  0
M  END
> <PUBCHEM_COMPOUND_CID>
52974254

> <PUBCHEM_COMPOUND_CANONICALIZED>
1

> <PUBCHEM_CACTVS_COMPLEXITY>
523

> <PUBCHEM_CACTVS_HBOND_ACCEPTOR>
1

> <PUBCHEM_CACTVS_HBOND_DONOR>
1

> <PUBCHEM_CACTVS_ROTATABLE_BOND>
1

> <PUBCHEM_CACTVS_SUBSKEYS>
AAADceB4IAAAAAAAAAAAAAAAAAAAAYAAAAAwYIAAAAAAAGDAAAAAGgAACAAAD0SAgAACAAAAAgDAGiBCAAgAAAAgAAAACAAAAAgAAAIAAQAAQAAEgAAIAAOAwPAPgAAAAAAAAACAAAQAACAAAYAADAAAAA==

> <PUBCHEM_IUPAC_OPENEYE_NAME>
(8S,9R,10S,13R,14R,17S)-17-ethynyl-13-methyl-2,3,6,7,8,9,10,11,12,14,15,16-dodecahydro-1H-cyclopenta[a]phenanthren-17-ol

> <PUBCHEM_IUPAC_CAS_NAME>
(8S,9R,10S,13R,14R,17S)-17-ethynyl-13-methyl-2,3,6,7,8,9,10,11,12,14,15,16-dodecahydro-1H-cyclopenta[a]phenanthren-17-ol

> <PUBCHEM_IUPAC_NAME>
(8S,9R,10S,13R,14R,17S)-17-ethynyl-13-methyl-2,3,6,7,8,9,10,11,12,14,15,16-dodecahydro-1H-cyclopenta[a]phenanthren-17-ol

> <PUBCHEM_IUPAC_SYSTEMATIC_NAME>
(8S,9R,10S,13R,14R,17S)-17-ethynyl-13-methyl-2,3,6,7,8,9,10,11,12,14,15,16-dodecahydro-1H-cyclopenta[a]phenanthren-17-ol

> <PUBCHEM_IUPAC_TRADITIONAL_NAME>
(8S,9R,10S,13R,14R,17S)-17-ethynyl-13-methyl-2,3,6,7,8,9,10,11,12,14,15,16-dodecahydro-1H-cyclopenta[a]phenanthren-17-ol

> <PUBCHEM_IUPAC_INCHI>
InChI=1S/C20H28O/c1-3-20(21)13-11-18-17-9-8-14-6-4-5-7-15(14)16(17)10-12-19(18,20)2/h1,6,15-18,21H,4-5,7-13H2,2H3/t15-,16+,17+,18-,19-,20-/m1/s1

> <PUBCHEM_IUPAC_INCHIKEY>
YNVGQYHLRCDXFQ-UEDNIHKISA-N

> <PUBCHEM_XLOGP3>
4.5

> <PUBCHEM_EXACT_MASS>
284.214016

> <PUBCHEM_MOLECULAR_FORMULA>
C20H28O

> <PUBCHEM_MOLECULAR_WEIGHT>
284.43572

> <PUBCHEM_OPENEYE_CAN_SMILES>
CC12CCC3C(C1CCC2(C#C)O)CCC4=CCCCC34

> <PUBCHEM_OPENEYE_ISO_SMILES>
C[C@@]12CC[C@@H]3[C@@H]([C@H]1CC[C@@]2(C#C)O)CCC4=CCCC[C@@H]34

> <PUBCHEM_CACTVS_TPSA>
20.2

> <PUBCHEM_MONOISOTOPIC_WEIGHT>
284.214016

> <PUBCHEM_TOTAL_CHARGE>
0

> <PUBCHEM_HEAVY_ATOM_COUNT>
21

> <PUBCHEM_ATOM_DEF_STEREO_COUNT>
6

> <PUBCHEM_ATOM_UDEF_STEREO_COUNT>
0

> <PUBCHEM_BOND_DEF_STEREO_COUNT>
0

> <PUBCHEM_BOND_UDEF_STEREO_COUNT>
0

> <PUBCHEM_ISOTOPIC_ATOM_COUNT>
0

> <PUBCHEM_COMPONENT_COUNT>
1

> <PUBCHEM_CACTVS_TAUTO_COUNT>
1

> <PUBCHEM_COORDINATE_TYPE>
1
5
255

> <PUBCHEM_BONDANNOTATIONS>
7  1  6
10  31  6
2  22  5
3  13  6
4  23  6
5  24  5

$$$$
