62474564
  -OEChem-10231221302D

 44 46  0     0  0  0  0  0  0999 V2000
    7.5701    3.0646    0.0000 N   0  0  0  0  0  0  0  0  0  0  0  0
    6.2781    0.2898    0.0000 N   0  0  0  0  0  0  0  0  0  0  0  0
    4.6783   -3.4269    0.0000 N   0  0  0  0  0  0  0  0  0  0  0  0
    7.5673    1.4466    0.0000 C   0  0  0  0  0  0  0  0  0  0  0  0
    7.2566    0.4961    0.0000 C   0  0  0  0  0  0  0  0  0  0  0  0
    6.9809    2.2566    0.0000 C   0  0  0  0  0  0  0  0  0  0  0  0
    4.9889   -0.8669    0.0000 C   0  0  0  0  0  0  0  0  0  0  0  0
    5.9674   -0.6607    0.0000 C   0  0  0  0  0  0  0  0  0  0  0  0
    4.6783   -1.8174    0.0000 C   0  0  0  0  0  0  0  0  0  0  0  0
    8.5206    2.7540    0.0000 C   0  0  0  0  0  0  0  0  0  0  0  0
    8.5189    1.7540    0.0000 C   0  0  0  0  0  0  0  0  0  0  0  0
    3.7320   -2.1222    0.0000 C   0  0  0  0  0  0  0  0  0  0  0  0
    3.7320   -3.1222    0.0000 C   0  0  0  0  0  0  0  0  0  0  0  0
    5.2619   -2.6222    0.0000 C   0  0  0  0  0  0  0  0  0  0  0  0
    5.9809    2.2584    0.0000 C   0  0  0  0  0  0  0  0  0  0  0  0
    7.2627    4.0162    0.0000 C   0  0  0  0  0  0  0  0  0  0  0  0
    9.3306    3.3403    0.0000 C   0  0  0  0  0  0  0  0  0  0  0  0
    2.8660   -1.6222    0.0000 C   0  0  0  0  0  0  0  0  0  0  0  0
    2.8660   -3.6222    0.0000 C   0  0  0  0  0  0  0  0  0  0  0  0
    2.0000   -2.1222    0.0000 C   0  0  0  0  0  0  0  0  0  0  0  0
    2.0000   -3.1222    0.0000 C   0  0  0  0  0  0  0  0  0  0  0  0
    7.2772   -0.1236    0.0000 H   0  0  0  0  0  0  0  0  0  0  0  0
    7.8704    0.4087    0.0000 H   0  0  0  0  0  0  0  0  0  0  0  0
    4.9684   -0.2472    0.0000 H   0  0  0  0  0  0  0  0  0  0  0  0
    4.3751   -0.7795    0.0000 H   0  0  0  0  0  0  0  0  0  0  0  0
    5.9880   -1.2803    0.0000 H   0  0  0  0  0  0  0  0  0  0  0  0
    6.5812   -0.7480    0.0000 H   0  0  0  0  0  0  0  0  0  0  0  0
    5.8640    0.7513    0.0000 H   0  0  0  0  0  0  0  0  0  0  0  0
    9.0198    1.3887    0.0000 H   0  0  0  0  0  0  0  0  0  0  0  0
    5.8819   -2.6222    0.0000 H   0  0  0  0  0  0  0  0  0  0  0  0
    5.9820    2.8783    0.0000 H   0  0  0  0  0  0  0  0  0  0  0  0
    5.3609    2.2594    0.0000 H   0  0  0  0  0  0  0  0  0  0  0  0
    5.9798    1.6384    0.0000 H   0  0  0  0  0  0  0  0  0  0  0  0
    4.8709   -4.0162    0.0000 H   0  0  0  0  0  0  0  0  0  0  0  0
    7.8527    4.2068    0.0000 H   0  0  0  0  0  0  0  0  0  0  0  0
    7.0721    4.6062    0.0000 H   0  0  0  0  0  0  0  0  0  0  0  0
    6.6727    3.8256    0.0000 H   0  0  0  0  0  0  0  0  0  0  0  0
    9.6942    2.8381    0.0000 H   0  0  0  0  0  0  0  0  0  0  0  0
    9.8328    3.7039    0.0000 H   0  0  0  0  0  0  0  0  0  0  0  0
    8.9671    3.8426    0.0000 H   0  0  0  0  0  0  0  0  0  0  0  0
    2.8660   -1.0022    0.0000 H   0  0  0  0  0  0  0  0  0  0  0  0
    2.8660   -4.2422    0.0000 H   0  0  0  0  0  0  0  0  0  0  0  0
    1.4631   -1.8122    0.0000 H   0  0  0  0  0  0  0  0  0  0  0  0
    1.4631   -3.4322    0.0000 H   0  0  0  0  0  0  0  0  0  0  0  0
  1  6  1  0  0  0  0
  1 10  1  0  0  0  0
  1 16  1  0  0  0  0
  2  5  1  0  0  0  0
  2  8  1  0  0  0  0
  2 28  1  0  0  0  0
  3 13  1  0  0  0  0
  3 14  1  0  0  0  0
  3 34  1  0  0  0  0
  4  5  1  0  0  0  0
  4  6  2  0  0  0  0
  4 11  1  0  0  0  0
  5 22  1  0  0  0  0
  5 23  1  0  0  0  0
  6 15  1  0  0  0  0
  7  8  1  0  0  0  0
  7  9  1  0  0  0  0
  7 24  1  0  0  0  0
  7 25  1  0  0  0  0
  8 26  1  0  0  0  0
  8 27  1  0  0  0  0
  9 12  1  0  0  0  0
  9 14  2  0  0  0  0
 10 11  2  0  0  0  0
 10 17  1  0  0  0  0
 11 29  1  0  0  0  0
 12 13  1  0  0  0  0
 12 18  2  0  0  0  0
 13 19  2  0  0  0  0
 14 30  1  0  0  0  0
 15 31  1  0  0  0  0
 15 32  1  0  0  0  0
 15 33  1  0  0  0  0
 16 35  1  0  0  0  0
 16 36  1  0  0  0  0
 16 37  1  0  0  0  0
 17 38  1  0  0  0  0
 17 39  1  0  0  0  0
 17 40  1  0  0  0  0
 18 20  1  0  0  0  0
 18 41  1  0  0  0  0
 19 21  1  0  0  0  0
 19 42  1  0  0  0  0
 20 21  2  0  0  0  0
 20 43  1  0  0  0  0
 21 44  1  0  0  0  0
M  END
> <PUBCHEM_COMPOUND_CID>
62474564

> <PUBCHEM_COMPOUND_CANONICALIZED>
1

> <PUBCHEM_CACTVS_COMPLEXITY>
332

> <PUBCHEM_CACTVS_HBOND_ACCEPTOR>
1

> <PUBCHEM_CACTVS_HBOND_DONOR>
2

> <PUBCHEM_CACTVS_ROTATABLE_BOND>
5

> <PUBCHEM_CACTVS_SUBSKEYS>
AAADceB7AAAAAAAAAAAAAAAAAAAAAWLAAAAwAAAAAAAAAFgB/AAAHAAQAAAADAjBHgQ+wPPNkACgAzRnRACCgCAxAiAI2aA4ZJgIIOLA0ZGEIAhgkADIyAcQgMAOgAAAAAACAAAAAAAAAAQAAAAAAAAAAA==

> <PUBCHEM_IUPAC_OPENEYE_NAME>
2-(1H-indol-3-yl)-N-[(1,2,5-trimethylpyrrol-3-yl)methyl]ethanamine

> <PUBCHEM_IUPAC_CAS_NAME>
2-(1H-indol-3-yl)-N-[(1,2,5-trimethyl-3-pyrrolyl)methyl]ethanamine

> <PUBCHEM_IUPAC_NAME>
2-(1H-indol-3-yl)-N-[(1,2,5-trimethylpyrrol-3-yl)methyl]ethanamine

> <PUBCHEM_IUPAC_SYSTEMATIC_NAME>
2-(1H-indol-3-yl)-N-[(1,2,5-trimethylpyrrol-3-yl)methyl]ethanamine

> <PUBCHEM_IUPAC_TRADITIONAL_NAME>
2-(1H-indol-3-yl)ethyl-[(1,2,5-trimethylpyrrol-3-yl)methyl]amine

> <PUBCHEM_IUPAC_INCHI>
InChI=1S/C18H23N3/c1-13-10-16(14(2)21(13)3)11-19-9-8-15-12-20-18-7-5-4-6-17(15)18/h4-7,10,12,19-20H,8-9,11H2,1-3H3

> <PUBCHEM_IUPAC_INCHIKEY>
MSLJBIZMVYRXOC-UHFFFAOYSA-N

> <PUBCHEM_XLOGP3>
3.1

> <PUBCHEM_EXACT_MASS>
281.189198

> <PUBCHEM_MOLECULAR_FORMULA>
C18H23N3

> <PUBCHEM_MOLECULAR_WEIGHT>
281.39532

> <PUBCHEM_OPENEYE_CAN_SMILES>
CC1=CC(=C(N1C)C)CNCCC2=CNC3=CC=CC=C32

> <PUBCHEM_OPENEYE_ISO_SMILES>
CC1=CC(=C(N1C)C)CNCCC2=CNC3=CC=CC=C32

> <PUBCHEM_CACTVS_TPSA>
32.8

> <PUBCHEM_MONOISOTOPIC_WEIGHT>
281.189198

> <PUBCHEM_TOTAL_CHARGE>
0

> <PUBCHEM_HEAVY_ATOM_COUNT>
21

> <PUBCHEM_ATOM_DEF_STEREO_COUNT>
0

> <PUBCHEM_ATOM_UDEF_STEREO_COUNT>
0

> <PUBCHEM_BOND_DEF_STEREO_COUNT>
0

> <PUBCHEM_BOND_UDEF_STEREO_COUNT>
0

> <PUBCHEM_ISOTOPIC_ATOM_COUNT>
0

> <PUBCHEM_COMPONENT_COUNT>
1

> <PUBCHEM_CACTVS_TAUTO_COUNT>
1

> <PUBCHEM_COORDINATE_TYPE>
1
5
255

> <PUBCHEM_BONDANNOTATIONS>
1  10  8
1  6  8
10  11  8
12  13  8
12  18  8
13  19  8
18  20  8
19  21  8
20  21  8
3  13  8
3  14  8
4  11  8
4  6  8
9  12  8
9  14  8

$$$$
