24056903
  -OEChem-11301217352D

 36 38  0     0  0  0  0  0  0999 V2000
    9.2136    1.2428    0.0000 Cl  0  0  0  0  0  0  0  0  0  0  0  0
    5.9209    2.3190    0.0000 Cl  0  0  0  0  0  0  0  0  0  0  0  0
    5.6103    1.3684    0.0000 O   0  0  0  0  0  0  0  0  0  0  0  0
    4.6783   -3.0926    0.0000 N   0  0  0  0  0  0  0  0  0  0  0  0
    7.2566    0.8304    0.0000 N   0  0  0  0  0  0  0  0  0  0  0  0
    4.6783   -1.4831    0.0000 C   0  0  0  0  0  0  0  0  0  0  0  0
    4.9889   -0.5326    0.0000 C   0  0  0  0  0  0  0  0  0  0  0  0
    3.7320   -1.7879    0.0000 C   0  0  0  0  0  0  0  0  0  0  0  0
    3.7320   -2.7879    0.0000 C   0  0  0  0  0  0  0  0  0  0  0  0
    5.9674   -0.3264    0.0000 C   0  0  0  0  0  0  0  0  0  0  0  0
    5.2619   -2.2879    0.0000 C   0  0  0  0  0  0  0  0  0  0  0  0
    2.8660   -1.2879    0.0000 C   0  0  0  0  0  0  0  0  0  0  0  0
    2.8660   -3.2879    0.0000 C   0  0  0  0  0  0  0  0  0  0  0  0
    6.2781    0.6241    0.0000 C   0  0  0  0  0  0  0  0  0  0  0  0
    2.0000   -1.7879    0.0000 C   0  0  0  0  0  0  0  0  0  0  0  0
    2.0000   -2.7879    0.0000 C   0  0  0  0  0  0  0  0  0  0  0  0
    7.5673    1.7809    0.0000 C   0  0  0  0  0  0  0  0  0  0  0  0
    8.5458    1.9871    0.0000 C   0  0  0  0  0  0  0  0  0  0  0  0
    6.8994    2.5252    0.0000 C   0  0  0  0  0  0  0  0  0  0  0  0
    8.8564    2.9376    0.0000 C   0  0  0  0  0  0  0  0  0  0  0  0
    7.2101    3.4757    0.0000 C   0  0  0  0  0  0  0  0  0  0  0  0
    8.1886    3.6819    0.0000 C   0  0  0  0  0  0  0  0  0  0  0  0
    4.9684    0.0871    0.0000 H   0  0  0  0  0  0  0  0  0  0  0  0
    4.3751   -0.4453    0.0000 H   0  0  0  0  0  0  0  0  0  0  0  0
    5.9880   -0.9460    0.0000 H   0  0  0  0  0  0  0  0  0  0  0  0
    6.5812   -0.4137    0.0000 H   0  0  0  0  0  0  0  0  0  0  0  0
    5.8819   -2.2879    0.0000 H   0  0  0  0  0  0  0  0  0  0  0  0
    4.8709   -3.6819    0.0000 H   0  0  0  0  0  0  0  0  0  0  0  0
    2.8660   -0.6679    0.0000 H   0  0  0  0  0  0  0  0  0  0  0  0
    2.8660   -3.9079    0.0000 H   0  0  0  0  0  0  0  0  0  0  0  0
    1.4631   -1.4779    0.0000 H   0  0  0  0  0  0  0  0  0  0  0  0
    1.4631   -3.0979    0.0000 H   0  0  0  0  0  0  0  0  0  0  0  0
    7.6707    0.3689    0.0000 H   0  0  0  0  0  0  0  0  0  0  0  0
    9.4631    3.0655    0.0000 H   0  0  0  0  0  0  0  0  0  0  0  0
    6.7960    3.9372    0.0000 H   0  0  0  0  0  0  0  0  0  0  0  0
    8.3812    4.2712    0.0000 H   0  0  0  0  0  0  0  0  0  0  0  0
  1 18  1  0  0  0  0
  2 19  1  0  0  0  0
  3 14  2  0  0  0  0
  4  9  1  0  0  0  0
  4 11  1  0  0  0  0
  4 28  1  0  0  0  0
  5 14  1  0  0  0  0
  5 17  1  0  0  0  0
  5 33  1  0  0  0  0
  6  7  1  0  0  0  0
  6  8  1  0  0  0  0
  6 11  2  0  0  0  0
  7 10  1  0  0  0  0
  7 23  1  0  0  0  0
  7 24  1  0  0  0  0
  8  9  1  0  0  0  0
  8 12  2  0  0  0  0
  9 13  2  0  0  0  0
 10 14  1  0  0  0  0
 10 25  1  0  0  0  0
 10 26  1  0  0  0  0
 11 27  1  0  0  0  0
 12 15  1  0  0  0  0
 12 29  1  0  0  0  0
 13 16  1  0  0  0  0
 13 30  1  0  0  0  0
 15 16  2  0  0  0  0
 15 31  1  0  0  0  0
 16 32  1  0  0  0  0
 17 18  2  0  0  0  0
 17 19  1  0  0  0  0
 18 20  1  0  0  0  0
 19 21  2  0  0  0  0
 20 22  2  0  0  0  0
 20 34  1  0  0  0  0
 21 22  1  0  0  0  0
 21 35  1  0  0  0  0
 22 36  1  0  0  0  0
M  END
> <PUBCHEM_COMPOUND_CID>
24056903

> <PUBCHEM_COMPOUND_CANONICALIZED>
1

> <PUBCHEM_CACTVS_COMPLEXITY>
383

> <PUBCHEM_CACTVS_HBOND_ACCEPTOR>
1

> <PUBCHEM_CACTVS_HBOND_DONOR>
2

> <PUBCHEM_CACTVS_ROTATABLE_BOND>
4

> <PUBCHEM_CACTVS_SUBSKEYS>
AAADccB7IAAGAAAAAAAAAAAAAAAAAWAAAAAwYAAAAAAAAFgB9AAAHgIQAAAADArBniQ8wPLJkACoAzV3VACCgCAxByAI2aE4ZpgIIPLBk5HEIAhglADIyAcYicCOgAAAAACCABAAAAAAAQQAIAAAAAAAAA==

> <PUBCHEM_IUPAC_OPENEYE_NAME>
N-(2,6-dichlorophenyl)-3-(1H-indol-3-yl)propanamide

> <PUBCHEM_IUPAC_CAS_NAME>
N-(2,6-dichlorophenyl)-3-(1H-indol-3-yl)propanamide

> <PUBCHEM_IUPAC_NAME>
N-(2,6-dichlorophenyl)-3-(1H-indol-3-yl)propanamide

> <PUBCHEM_IUPAC_SYSTEMATIC_NAME>
N-[2,6-bis(chloranyl)phenyl]-3-(1H-indol-3-yl)propanamide

> <PUBCHEM_IUPAC_TRADITIONAL_NAME>
N-(2,6-dichlorophenyl)-3-(1H-indol-3-yl)propionamide

> <PUBCHEM_IUPAC_INCHI>
InChI=1S/C17H14Cl2N2O/c18-13-5-3-6-14(19)17(13)21-16(22)9-8-11-10-20-15-7-2-1-4-12(11)15/h1-7,10,20H,8-9H2,(H,21,22)

> <PUBCHEM_IUPAC_INCHIKEY>
RIZHRIQWHWLZDX-UHFFFAOYSA-N

> <PUBCHEM_XLOGP3>
4.3

> <PUBCHEM_EXACT_MASS>
332.048318

> <PUBCHEM_MOLECULAR_FORMULA>
C17H14Cl2N2O

> <PUBCHEM_MOLECULAR_WEIGHT>
333.21186

> <PUBCHEM_OPENEYE_CAN_SMILES>
C1=CC=C2C(=C1)C(=CN2)CCC(=O)NC3=C(C=CC=C3Cl)Cl

> <PUBCHEM_OPENEYE_ISO_SMILES>
C1=CC=C2C(=C1)C(=CN2)CCC(=O)NC3=C(C=CC=C3Cl)Cl

> <PUBCHEM_CACTVS_TPSA>
44.9

> <PUBCHEM_MONOISOTOPIC_WEIGHT>
332.048318

> <PUBCHEM_TOTAL_CHARGE>
0

> <PUBCHEM_HEAVY_ATOM_COUNT>
22

> <PUBCHEM_ATOM_DEF_STEREO_COUNT>
0

> <PUBCHEM_ATOM_UDEF_STEREO_COUNT>
0

> <PUBCHEM_BOND_DEF_STEREO_COUNT>
0

> <PUBCHEM_BOND_UDEF_STEREO_COUNT>
0

> <PUBCHEM_ISOTOPIC_ATOM_COUNT>
0

> <PUBCHEM_COMPONENT_COUNT>
1

> <PUBCHEM_CACTVS_TAUTO_COUNT>
3

> <PUBCHEM_COORDINATE_TYPE>
1
5
255

> <PUBCHEM_BONDANNOTATIONS>
12  15  8
13  16  8
15  16  8
17  18  8
17  19  8
18  20  8
19  21  8
20  22  8
21  22  8
4  11  8
4  9  8
6  11  8
6  8  8
8  12  8
8  9  8
9  13  8

$$$$
24066924
  -OEChem-11301217352D

 60 65  0     1  0  0  0  0  0999 V2000
    4.5004    1.8978    0.0000 O   0  0  0  0  0  0  0  0  0  0  0  0
    4.2690   -0.5571    0.0000 O   0  0  0  0  0  0  0  0  0  0  0  0
    4.2690    4.2472    0.0000 O   0  0  0  0  0  0  0  0  0  0  0  0
    5.1350   -2.0572    0.0000 O   0  0  0  0  0  0  0  0  0  0  0  0
    2.5369   -1.5572    0.0000 O   0  0  0  0  0  0  0  0  0  0  0  0
    2.5369   -3.5572    0.0000 O   0  0  0  0  0  0  0  0  0  0  0  0
    4.2690   -4.5572    0.0000 O   0  0  0  0  0  0  0  0  0  0  0  0
    6.0010   -4.5572    0.0000 O   0  0  0  0  0  0  0  0  0  0  0  0
    6.8671   -3.0572    0.0000 O   0  0  0  0  0  0  0  0  0  0  0  0
    8.4296    0.8939    0.0000 N   0  0  3  0  0  0  0  0  0  0  0  0
    5.9587    1.3695    0.0000 C   0  0  1  0  0  0  0  0  0  0  0  0
    6.7823    0.8939    0.0000 C   0  0  2  0  0  0  0  0  0  0  0  0
    5.1350    0.8939    0.0000 C   0  0  1  0  0  0  0  0  0  0  0  0
    7.6060    1.3695    0.0000 C   0  0  2  0  0  0  0  0  0  0  0  0
    6.5082    2.0669    0.0000 C   0  0  0  0  0  0  0  0  0  0  0  0
    5.9587    2.3205    0.0000 C   0  0  0  0  0  0  0  0  0  0  0  0
    7.6060    2.3205    0.0000 C   0  0  0  0  0  0  0  0  0  0  0  0
    7.8608    2.0669    0.0000 C   0  0  0  0  0  0  0  0  0  0  0  0
    5.1350   -0.0572    0.0000 C   0  0  2  0  0  0  0  0  0  0  0  0
    6.7823    2.7961    0.0000 C   0  0  0  0  0  0  0  0  0  0  0  0
    6.7823   -0.0572    0.0000 C   0  0  0  0  0  0  0  0  0  0  0  0
    5.1350    2.7961    0.0000 C   0  0  0  0  0  0  0  0  0  0  0  0
    5.9587   -0.5327    0.0000 C   0  0  0  0  0  0  0  0  0  0  0  0
    9.1108    0.1618    0.0000 C   0  0  0  0  0  0  0  0  0  0  0  0
    6.7823    3.7472    0.0000 C   0  0  0  0  0  0  0  0  0  0  0  0
    5.1350    3.7472    0.0000 C   0  0  0  0  0  0  0  0  0  0  0  0
    5.9587    4.2227    0.0000 C   0  0  0  0  0  0  0  0  0  0  0  0
    4.2690   -1.5572    0.0000 C   0  0  2  0  0  0  0  0  0  0  0  0
    3.4030   -2.0572    0.0000 C   0  0  1  0  0  0  0  0  0  0  0  0
    3.4030   -3.0572    0.0000 C   0  0  2  0  0  0  0  0  0  0  0  0
    4.2690   -3.5572    0.0000 C   0  0  1  0  0  0  0  0  0  0  0  0
    5.1350   -3.0572    0.0000 C   0  0  1  0  0  0  0  0  0  0  0  0
    6.0010   -3.5572    0.0000 C   0  0  0  0  0  0  0  0  0  0  0  0
    7.3287    0.2428    0.0000 H   0  0  0  0  0  0  0  0  0  0  0  0
    4.3186    0.6575    0.0000 H   0  0  0  0  0  0  0  0  0  0  0  0
    7.8974    0.5710    0.0000 H   0  0  0  0  0  0  0  0  0  0  0  0
    6.6450    2.6716    0.0000 H   0  0  0  0  0  0  0  0  0  0  0  0
    5.9485    2.3337    0.0000 H   0  0  0  0  0  0  0  0  0  0  0  0
    8.2166    2.2129    0.0000 H   0  0  0  0  0  0  0  0  0  0  0  0
    7.8180    2.9031    0.0000 H   0  0  0  0  0  0  0  0  0  0  0  0
    8.4530    2.2507    0.0000 H   0  0  0  0  0  0  0  0  0  0  0  0
    7.7679    2.6799    0.0000 H   0  0  0  0  0  0  0  0  0  0  0  0
    5.1350   -0.6772    0.0000 H   0  0  0  0  0  0  0  0  0  0  0  0
    7.3193   -0.3671    0.0000 H   0  0  0  0  0  0  0  0  0  0  0  0
    5.9587   -1.1527    0.0000 H   0  0  0  0  0  0  0  0  0  0  0  0
    8.6569   -0.2605    0.0000 H   0  0  0  0  0  0  0  0  0  0  0  0
    9.5331   -0.2921    0.0000 H   0  0  0  0  0  0  0  0  0  0  0  0
    9.5647    0.5841    0.0000 H   0  0  0  0  0  0  0  0  0  0  0  0
    7.3193    4.0572    0.0000 H   0  0  0  0  0  0  0  0  0  0  0  0
    5.9587    4.8427    0.0000 H   0  0  0  0  0  0  0  0  0  0  0  0
    3.7320   -1.2472    0.0000 H   0  0  0  0  0  0  0  0  0  0  0  0
    2.8660   -2.3672    0.0000 H   0  0  0  0  0  0  0  0  0  0  0  0
    3.4030   -3.6772    0.0000 H   0  0  0  0  0  0  0  0  0  0  0  0
    4.2690    4.8672    0.0000 H   0  0  0  0  0  0  0  0  0  0  0  0
    4.8059   -3.8672    0.0000 H   0  0  0  0  0  0  0  0  0  0  0  0
    5.6720   -2.7472    0.0000 H   0  0  0  0  0  0  0  0  0  0  0  0
    2.0000   -1.8672    0.0000 H   0  0  0  0  0  0  0  0  0  0  0  0
    2.0000   -3.2472    0.0000 H   0  0  0  0  0  0  0  0  0  0  0  0
    3.7320   -4.8672    0.0000 H   0  0  0  0  0  0  0  0  0  0  0  0
    6.5380   -4.8672    0.0000 H   0  0  0  0  0  0  0  0  0  0  0  0
  1 13  1  0  0  0  0
  1 22  1  0  0  0  0
 19  2  1  6  0  0  0
 28  2  1  6  0  0  0
  3 26  1  0  0  0  0
  3 54  1  0  0  0  0
  4 28  1  0  0  0  0
  4 32  1  0  0  0  0
 29  5  1  1  0  0  0
  5 57  1  0  0  0  0
 30  6  1  6  0  0  0
  6 58  1  0  0  0  0
 31  7  1  1  0  0  0
  7 59  1  0  0  0  0
  8 33  1  0  0  0  0
  8 60  1  0  0  0  0
  9 33  2  0  0  0  0
 10 14  1  0  0  0  0
 10 18  1  0  0  0  0
 10 24  1  0  0  0  0
 11 12  1  0  0  0  0
 11 13  1  0  0  0  0
 11 15  1  1  0  0  0
 11 16  1  0  0  0  0
 12 14  1  0  0  0  0
 12 21  1  0  0  0  0
 12 34  1  1  0  0  0
 13 19  1  0  0  0  0
 13 35  1  6  0  0  0
 14 17  1  0  0  0  0
 14 36  1  1  0  0  0
 15 18  1  0  0  0  0
 15 37  1  0  0  0  0
 15 38  1  0  0  0  0
 16 20  2  0  0  0  0
 16 22  1  0  0  0  0
 17 20  1  0  0  0  0
 17 39  1  0  0  0  0
 17 40  1  0  0  0  0
 18 41  1  0  0  0  0
 18 42  1  0  0  0  0
 19 23  1  0  0  0  0
 19 43  1  0  0  0  0
 20 25  1  0  0  0  0
 21 23  2  0  0  0  0
 21 44  1  0  0  0  0
 22 26  2  0  0  0  0
 23 45  1  0  0  0  0
 24 46  1  0  0  0  0
 24 47  1  0  0  0  0
 24 48  1  0  0  0  0
 25 27  2  0  0  0  0
 25 49  1  0  0  0  0
 26 27  1  0  0  0  0
 27 50  1  0  0  0  0
 28 29  1  0  0  0  0
 28 51  1  0  0  0  0
 29 30  1  0  0  0  0
 29 52  1  0  0  0  0
 30 31  1  0  0  0  0
 30 53  1  0  0  0  0
 31 32  1  0  0  0  0
 31 55  1  0  0  0  0
 32 33  1  6  0  0  0
 32 56  1  0  0  0  0
M  END
> <PUBCHEM_COMPOUND_CID>
24066924

> <PUBCHEM_COMPOUND_CANONICALIZED>
1

> <PUBCHEM_CACTVS_COMPLEXITY>
839

> <PUBCHEM_CACTVS_HBOND_ACCEPTOR>
10

> <PUBCHEM_CACTVS_HBOND_DONOR>
5

> <PUBCHEM_CACTVS_ROTATABLE_BOND>
3

> <PUBCHEM_CACTVS_SUBSKEYS>
AAADceB6PAAAAAAAAAAAAAAAAAAAASAAAAA8aIECAAAWAEjBAAAAHgAACAAADzzxmAcyDoMABgCIAiDSCAICCAAgIAAIiAFOiIgdNjaGsR+meCOl4BGPuAf6/P9PoAABAAAYQADQAAaAADSAAAAAAAAAAA==

> <PUBCHEM_IUPAC_OPENEYE_NAME>
(2S,3S,4S,5R,6R)-6-[[(4S,4aR,7S,7aS,12bS)-9-hydroxy-3-methyl-2,4,4a,7,7a,13-hexahydro-1H-4,12-methanobenzofuro[3,2-e]isoquinoline-7-yl]oxy]-3,4,5-trihydroxy-tetrahydropyran-2-carboxylic acid

> <PUBCHEM_IUPAC_CAS_NAME>
(2S,3S,4S,5R,6R)-6-[[(4S,4aR,7S,7aS,12bS)-9-hydroxy-3-methyl-2,4,4a,7,7a,13-hexahydro-1H-4,12-methanobenzofuro[3,2-e]isoquinoline-7-yl]oxy]-3,4,5-trihydroxy-2-oxanecarboxylic acid

> <PUBCHEM_IUPAC_NAME>
(2S,3S,4S,5R,6R)-6-[[(4S,4aR,7S,7aS,12bS)-9-hydroxy-3-methyl-2,4,4a,7,7a,13-hexahydro-1H-4,12-methanobenzofuro[3,2-e]isoquinoline-7-yl]oxy]-3,4,5-trihydroxyoxane-2-carboxylic acid

> <PUBCHEM_IUPAC_SYSTEMATIC_NAME>
(2S,3S,4S,5R,6R)-6-[[(4S,4aR,7S,7aS,12bS)-3-methyl-9-oxidanyl-2,4,4a,7,7a,13-hexahydro-1H-4,12-methanobenzofuro[3,2-e]isoquinoline-7-yl]oxy]-3,4,5-tris(oxidanyl)oxane-2-carboxylic acid

> <PUBCHEM_IUPAC_TRADITIONAL_NAME>
(2S,3S,4S,5R,6R)-6-[[(4S,4aR,7S,7aS,12bS)-9-hydroxy-3-methyl-2,4,4a,7,7a,13-hexahydro-1H-4,12-methanobenzofuro[3,2-e]isoquinoline-7-yl]oxy]-3,4,5-trihydroxy-tetrahydropyran-2-carboxylic acid

> <PUBCHEM_IUPAC_INCHI>
InChI=1S/C23H27NO9/c1-24-7-6-23-10-3-5-13(31-22-17(28)15(26)16(27)19(33-22)21(29)30)20(23)32-18-12(25)4-2-9(14(18)23)8-11(10)24/h2-5,10-11,13,15-17,19-20,22,25-28H,6-8H2,1H3,(H,29,30)/t10-,11-,13-,15-,16-,17+,19-,20+,22+,23-/m0/s1

> <PUBCHEM_IUPAC_INCHIKEY>
GNJCUHZOSOYIEC-LENPGCBLSA-N

> <PUBCHEM_XLOGP3>
-2.9

> <PUBCHEM_EXACT_MASS>
461.168581

> <PUBCHEM_MOLECULAR_FORMULA>
C23H27NO9

> <PUBCHEM_MOLECULAR_WEIGHT>
461.46178

> <PUBCHEM_OPENEYE_CAN_SMILES>
CN1CCC23C4C1CC5=C2C(=C(C=C5)O)OC3C(C=C4)OC6C(C(C(C(O6)C(=O)O)O)O)O

> <PUBCHEM_OPENEYE_ISO_SMILES>
CN1CC[C@]23[C@@H]4[C@@H]1CC5=C2C(=C(C=C5)O)O[C@@H]3[C@H](C=C4)O[C@H]6[C@@H]([C@H]([C@@H]([C@H](O6)C(=O)O)O)O)O

> <PUBCHEM_CACTVS_TPSA>
149

> <PUBCHEM_MONOISOTOPIC_WEIGHT>
461.168581

> <PUBCHEM_TOTAL_CHARGE>
0

> <PUBCHEM_HEAVY_ATOM_COUNT>
33

> <PUBCHEM_ATOM_DEF_STEREO_COUNT>
10

> <PUBCHEM_ATOM_UDEF_STEREO_COUNT>
0

> <PUBCHEM_BOND_DEF_STEREO_COUNT>
0

> <PUBCHEM_BOND_UDEF_STEREO_COUNT>
0

> <PUBCHEM_ISOTOPIC_ATOM_COUNT>
0

> <PUBCHEM_COMPONENT_COUNT>
1

> <PUBCHEM_CACTVS_TAUTO_COUNT>
2

> <PUBCHEM_COORDINATE_TYPE>
1
5
255

> <PUBCHEM_BONDANNOTATIONS>
11  15  5
12  34  5
13  35  6
14  36  5
16  20  8
16  22  8
19  2  6
28  2  6
20  25  8
22  26  8
25  27  8
26  27  8
32  33  6
29  5  5
30  6  6
31  7  5

$$$$
24071678
  -OEChem-11301217362D

 28 29  0     0  0  0  0  0  0999 V2000
    2.0000    1.9400    0.0000 S   0  0  0  0  0  0  0  0  0  0  0  0
    3.7320   -1.0600    0.0000 N   0  0  0  0  0  0  0  0  0  0  0  0
    3.7320    1.9400    0.0000 N   0  0  0  0  0  0  0  0  0  0  0  0
    2.8660    0.4400    0.0000 N   0  0  0  0  0  0  0  0  0  0  0  0
    2.8660   -1.5600    0.0000 C   0  0  0  0  0  0  0  0  0  0  0  0
    4.5981    0.4400    0.0000 C   0  0  0  0  0  0  0  0  0  0  0  0
    3.7320   -0.0600    0.0000 C   0  0  0  0  0  0  0  0  0  0  0  0
    4.5981    1.4400    0.0000 C   0  0  0  0  0  0  0  0  0  0  0  0
    2.8660   -2.5600    0.0000 C   0  0  0  0  0  0  0  0  0  0  0  0
    2.0000   -1.0600    0.0000 C   0  0  0  0  0  0  0  0  0  0  0  0
    5.4920   -0.0947    0.0000 C   0  0  0  0  0  0  0  0  0  0  0  0
    5.4920    1.9747    0.0000 C   0  0  0  0  0  0  0  0  0  0  0  0
    2.8660    1.4400    0.0000 C   0  0  0  0  0  0  0  0  0  0  0  0
    6.3981    0.4192    0.0000 C   0  0  0  0  0  0  0  0  0  0  0  0
    6.3981    1.4608    0.0000 C   0  0  0  0  0  0  0  0  0  0  0  0
    2.8660   -0.9400    0.0000 H   0  0  0  0  0  0  0  0  0  0  0  0
    4.2690   -1.3700    0.0000 H   0  0  0  0  0  0  0  0  0  0  0  0
    2.3100   -0.5231    0.0000 H   0  0  0  0  0  0  0  0  0  0  0  0
    1.4631   -0.7500    0.0000 H   0  0  0  0  0  0  0  0  0  0  0  0
    2.2460   -2.5600    0.0000 H   0  0  0  0  0  0  0  0  0  0  0  0
    2.8660   -3.1800    0.0000 H   0  0  0  0  0  0  0  0  0  0  0  0
    3.4860   -2.5600    0.0000 H   0  0  0  0  0  0  0  0  0  0  0  0
    1.6900   -1.5969    0.0000 H   0  0  0  0  0  0  0  0  0  0  0  0
    5.4848   -0.7146    0.0000 H   0  0  0  0  0  0  0  0  0  0  0  0
    3.7320    2.5600    0.0000 H   0  0  0  0  0  0  0  0  0  0  0  0
    5.4848    2.5946    0.0000 H   0  0  0  0  0  0  0  0  0  0  0  0
    6.9338    0.1071    0.0000 H   0  0  0  0  0  0  0  0  0  0  0  0
    6.9338    1.7729    0.0000 H   0  0  0  0  0  0  0  0  0  0  0  0
  1 13  2  0  0  0  0
  2  5  1  0  0  0  0
  2  7  1  0  0  0  0
  2 17  1  0  0  0  0
  3  8  1  0  0  0  0
  3 13  1  0  0  0  0
  3 25  1  0  0  0  0
  4  7  2  0  0  0  0
  4 13  1  0  0  0  0
  5  9  1  0  0  0  0
  5 10  1  0  0  0  0
  5 16  1  0  0  0  0
  6  7  1  0  0  0  0
  6  8  1  0  0  0  0
  6 11  2  0  0  0  0
  8 12  2  0  0  0  0
  9 20  1  0  0  0  0
  9 21  1  0  0  0  0
  9 22  1  0  0  0  0
 10 18  1  0  0  0  0
 10 19  1  0  0  0  0
 10 23  1  0  0  0  0
 11 14  1  0  0  0  0
 11 24  1  0  0  0  0
 12 15  1  0  0  0  0
 12 26  1  0  0  0  0
 14 15  2  0  0  0  0
 14 27  1  0  0  0  0
 15 28  1  0  0  0  0
M  END
> <PUBCHEM_COMPOUND_CID>
24071678

> <PUBCHEM_COMPOUND_CANONICALIZED>
1

> <PUBCHEM_CACTVS_COMPLEXITY>
286

> <PUBCHEM_CACTVS_HBOND_ACCEPTOR>
1

> <PUBCHEM_CACTVS_HBOND_DONOR>
2

> <PUBCHEM_CACTVS_ROTATABLE_BOND>
2

> <PUBCHEM_CACTVS_SUBSKEYS>
AAADccBzAABAAAAAAAAAAAAAAAAAAAAAAAAwQAAAAAAAAACBAAAAHAQQAAAADCjBGAQzwILAAACkAiZiZACCAAEhAgkJiIAoZJiIIKLA2ZGEIAhgkALIyCcQgAAOAAAAAAACAAAAAAAAAAQAAAAAAAAAAA==

> <PUBCHEM_IUPAC_OPENEYE_NAME>
4-(isopropylamino)-1H-quinazoline-2-thione

> <PUBCHEM_IUPAC_CAS_NAME>
4-(propan-2-ylamino)-1H-quinazoline-2-thione

> <PUBCHEM_IUPAC_NAME>
4-(propan-2-ylamino)-1H-quinazoline-2-thione

> <PUBCHEM_IUPAC_SYSTEMATIC_NAME>
4-(propan-2-ylamino)-1H-quinazoline-2-thione

> <PUBCHEM_IUPAC_TRADITIONAL_NAME>
4-(isopropylamino)-1H-quinazoline-2-thione

> <PUBCHEM_IUPAC_INCHI>
InChI=1S/C11H13N3S/c1-7(2)12-10-8-5-3-4-6-9(8)13-11(15)14-10/h3-7H,1-2H3,(H2,12,13,14,15)

> <PUBCHEM_IUPAC_INCHIKEY>
OHTKTSJMSYQXFQ-UHFFFAOYSA-N

> <PUBCHEM_XLOGP3>
2.4

> <PUBCHEM_EXACT_MASS>
219.083018

> <PUBCHEM_MOLECULAR_FORMULA>
C11H13N3S

> <PUBCHEM_MOLECULAR_WEIGHT>
219.30602

> <PUBCHEM_OPENEYE_CAN_SMILES>
CC(C)NC1=NC(=S)NC2=CC=CC=C21

> <PUBCHEM_OPENEYE_ISO_SMILES>
CC(C)NC1=NC(=S)NC2=CC=CC=C21

> <PUBCHEM_CACTVS_TPSA>
68.5

> <PUBCHEM_MONOISOTOPIC_WEIGHT>
219.083018

> <PUBCHEM_TOTAL_CHARGE>
0

> <PUBCHEM_HEAVY_ATOM_COUNT>
15

> <PUBCHEM_ATOM_DEF_STEREO_COUNT>
0

> <PUBCHEM_ATOM_UDEF_STEREO_COUNT>
0

> <PUBCHEM_BOND_DEF_STEREO_COUNT>
0

> <PUBCHEM_BOND_UDEF_STEREO_COUNT>
0

> <PUBCHEM_ISOTOPIC_ATOM_COUNT>
0

> <PUBCHEM_COMPONENT_COUNT>
1

> <PUBCHEM_CACTVS_TAUTO_COUNT>
9

> <PUBCHEM_COORDINATE_TYPE>
1
5
255

> <PUBCHEM_BONDANNOTATIONS>
11  14  8
12  15  8
14  15  8
3  13  8
3  8  8
4  13  8
4  7  8
6  11  8
6  7  8
6  8  8
8  12  8

$$$$
24071686
  -OEChem-11301217362D

 40 41  0     0  0  0  0  0  0999 V2000
    3.7320   -0.7500    0.0000 S   0  0  0  0  0  0  0  0  0  0  0  0
    5.4641   -0.7500    0.0000 N   0  0  0  0  0  0  0  0  0  0  0  0
    4.5981   -2.2500    0.0000 N   0  0  0  0  0  0  0  0  0  0  0  0
    5.4641    3.2500    0.0000 C   0  0  0  0  0  0  0  0  0  0  0  0
    5.4641    2.2500    0.0000 C   0  0  0  0  0  0  0  0  0  0  0  0
    5.4641    4.2500    0.0000 C   0  0  0  0  0  0  0  0  0  0  0  0
    6.4641    3.2500    0.0000 C   0  0  0  0  0  0  0  0  0  0  0  0
    4.4641    3.2500    0.0000 C   0  0  0  0  0  0  0  0  0  0  0  0
    4.5981    1.7500    0.0000 C   0  0  0  0  0  0  0  0  0  0  0  0
    6.3301    1.7500    0.0000 C   0  0  0  0  0  0  0  0  0  0  0  0
    4.5981    0.7500    0.0000 C   0  0  0  0  0  0  0  0  0  0  0  0
    6.3301    0.7500    0.0000 C   0  0  0  0  0  0  0  0  0  0  0  0
    5.4641    0.2500    0.0000 C   0  0  0  0  0  0  0  0  0  0  0  0
    4.5981   -1.2500    0.0000 C   0  0  0  0  0  0  0  0  0  0  0  0
    3.7320   -2.7500    0.0000 C   0  0  0  0  0  0  0  0  0  0  0  0
    2.8660   -2.2500    0.0000 C   0  0  0  0  0  0  0  0  0  0  0  0
    3.7320   -3.7500    0.0000 C   0  0  0  0  0  0  0  0  0  0  0  0
    2.0000   -2.7500    0.0000 C   0  0  0  0  0  0  0  0  0  0  0  0
    2.8660   -4.2500    0.0000 C   0  0  0  0  0  0  0  0  0  0  0  0
    2.0000   -3.7500    0.0000 C   0  0  0  0  0  0  0  0  0  0  0  0
    6.0841    4.2500    0.0000 H   0  0  0  0  0  0  0  0  0  0  0  0
    4.4641    3.8700    0.0000 H   0  0  0  0  0  0  0  0  0  0  0  0
    3.8441    3.2500    0.0000 H   0  0  0  0  0  0  0  0  0  0  0  0
    4.4641    2.6300    0.0000 H   0  0  0  0  0  0  0  0  0  0  0  0
    6.4641    2.6300    0.0000 H   0  0  0  0  0  0  0  0  0  0  0  0
    7.0841    3.2500    0.0000 H   0  0  0  0  0  0  0  0  0  0  0  0
    6.4641    3.8700    0.0000 H   0  0  0  0  0  0  0  0  0  0  0  0
    5.4641    4.8700    0.0000 H   0  0  0  0  0  0  0  0  0  0  0  0
    4.8441    4.2500    0.0000 H   0  0  0  0  0  0  0  0  0  0  0  0
    4.0611    2.0600    0.0000 H   0  0  0  0  0  0  0  0  0  0  0  0
    6.8671    2.0600    0.0000 H   0  0  0  0  0  0  0  0  0  0  0  0
    4.0611    0.4400    0.0000 H   0  0  0  0  0  0  0  0  0  0  0  0
    6.8671    0.4400    0.0000 H   0  0  0  0  0  0  0  0  0  0  0  0
    6.0010   -1.0600    0.0000 H   0  0  0  0  0  0  0  0  0  0  0  0
    5.1350   -2.5600    0.0000 H   0  0  0  0  0  0  0  0  0  0  0  0
    2.8660   -1.6300    0.0000 H   0  0  0  0  0  0  0  0  0  0  0  0
    4.2690   -4.0600    0.0000 H   0  0  0  0  0  0  0  0  0  0  0  0
    1.4631   -2.4400    0.0000 H   0  0  0  0  0  0  0  0  0  0  0  0
    2.8660   -4.8700    0.0000 H   0  0  0  0  0  0  0  0  0  0  0  0
    1.4631   -4.0600    0.0000 H   0  0  0  0  0  0  0  0  0  0  0  0
  1 14  2  0  0  0  0
  2 13  1  0  0  0  0
  2 14  1  0  0  0  0
  2 34  1  0  0  0  0
  3 14  1  0  0  0  0
  3 15  1  0  0  0  0
  3 35  1  0  0  0  0
  4  5  1  0  0  0  0
  4  6  1  0  0  0  0
  4  7  1  0  0  0  0
  4  8  1  0  0  0  0
  5  9  2  0  0  0  0
  5 10  1  0  0  0  0
  6 21  1  0  0  0  0
  6 28  1  0  0  0  0
  6 29  1  0  0  0  0
  7 25  1  0  0  0  0
  7 26  1  0  0  0  0
  7 27  1  0  0  0  0
  8 22  1  0  0  0  0
  8 23  1  0  0  0  0
  8 24  1  0  0  0  0
  9 11  1  0  0  0  0
  9 30  1  0  0  0  0
 10 12  2  0  0  0  0
 10 31  1  0  0  0  0
 11 13  2  0  0  0  0
 11 32  1  0  0  0  0
 12 13  1  0  0  0  0
 12 33  1  0  0  0  0
 15 16  2  0  0  0  0
 15 17  1  0  0  0  0
 16 18  1  0  0  0  0
 16 36  1  0  0  0  0
 17 19  2  0  0  0  0
 17 37  1  0  0  0  0
 18 20  2  0  0  0  0
 18 38  1  0  0  0  0
 19 20  1  0  0  0  0
 19 39  1  0  0  0  0
 20 40  1  0  0  0  0
M  END
> <PUBCHEM_COMPOUND_CID>
24071686

> <PUBCHEM_COMPOUND_CANONICALIZED>
1

> <PUBCHEM_CACTVS_COMPLEXITY>
307

> <PUBCHEM_CACTVS_HBOND_ACCEPTOR>
1

> <PUBCHEM_CACTVS_HBOND_DONOR>
2

> <PUBCHEM_CACTVS_ROTATABLE_BOND>
3

> <PUBCHEM_CACTVS_SUBSKEYS>
AAADceB7AABAAAAAAAAAAAAAAAAAAAAAAAAwYAAAAAAAAAABQAAAHAQQAAAADgiBGAAzwILAAACEAiRCQACCAAAhAgkIiAAAZIiIICLAkZGEIAhokAJIyCcQgMAPiAAAAAAAAAAQAAAAAAAAAAAAAAAAAA==

> <PUBCHEM_IUPAC_OPENEYE_NAME>
1-(4-tert-butylphenyl)-3-phenyl-thiourea

> <PUBCHEM_IUPAC_CAS_NAME>
1-(4-tert-butylphenyl)-3-phenylthiourea

> <PUBCHEM_IUPAC_NAME>
1-(4-tert-butylphenyl)-3-phenylthiourea

> <PUBCHEM_IUPAC_SYSTEMATIC_NAME>
1-(4-tert-butylphenyl)-3-phenyl-thiourea

> <PUBCHEM_IUPAC_TRADITIONAL_NAME>
1-(4-tert-butylphenyl)-3-phenyl-thiourea

> <PUBCHEM_IUPAC_INCHI>
InChI=1S/C17H20N2S/c1-17(2,3)13-9-11-15(12-10-13)19-16(20)18-14-7-5-4-6-8-14/h4-12H,1-3H3,(H2,18,19,20)

> <PUBCHEM_IUPAC_INCHIKEY>
WELAFPHESRLBJV-UHFFFAOYSA-N

> <PUBCHEM_XLOGP3>
3.8

> <PUBCHEM_EXACT_MASS>
284.13472

> <PUBCHEM_MOLECULAR_FORMULA>
C17H20N2S

> <PUBCHEM_MOLECULAR_WEIGHT>
284.4191

> <PUBCHEM_OPENEYE_CAN_SMILES>
CC(C)(C)C1=CC=C(C=C1)NC(=S)NC2=CC=CC=C2

> <PUBCHEM_OPENEYE_ISO_SMILES>
CC(C)(C)C1=CC=C(C=C1)NC(=S)NC2=CC=CC=C2

> <PUBCHEM_CACTVS_TPSA>
56.2

> <PUBCHEM_MONOISOTOPIC_WEIGHT>
284.13472

> <PUBCHEM_TOTAL_CHARGE>
0

> <PUBCHEM_HEAVY_ATOM_COUNT>
20

> <PUBCHEM_ATOM_DEF_STEREO_COUNT>
0

> <PUBCHEM_ATOM_UDEF_STEREO_COUNT>
0

> <PUBCHEM_BOND_DEF_STEREO_COUNT>
0

> <PUBCHEM_BOND_UDEF_STEREO_COUNT>
0

> <PUBCHEM_ISOTOPIC_ATOM_COUNT>
0

> <PUBCHEM_COMPONENT_COUNT>
1

> <PUBCHEM_CACTVS_TAUTO_COUNT>
3

> <PUBCHEM_COORDINATE_TYPE>
1
5
255

> <PUBCHEM_BONDANNOTATIONS>
10  12  8
11  13  8
12  13  8
15  16  8
15  17  8
16  18  8
17  19  8
18  20  8
19  20  8
5  10  8
5  9  8
9  11  8

$$$$
24072860
  -OEChem-11301217362D

 37 39  0     0  0  0  0  0  0999 V2000
    2.0000    1.5194    0.0000 O   0  0  0  0  0  0  0  0  0  0  0  0
    2.8660   -2.9806    0.0000 N   0  0  0  0  0  0  0  0  0  0  0  0
    3.7320    1.5194    0.0000 N   0  0  0  0  0  0  0  0  0  0  0  0
    2.8660   -1.9806    0.0000 C   0  0  0  0  0  0  0  0  0  0  0  0
    2.8660    0.0194    0.0000 C   0  0  0  0  0  0  0  0  0  0  0  0
    3.7320    2.5194    0.0000 C   0  0  0  0  0  0  0  0  0  0  0  0
    3.7320   -1.4806    0.0000 C   0  0  0  0  0  0  0  0  0  0  0  0
    2.0000   -1.4806    0.0000 C   0  0  0  0  0  0  0  0  0  0  0  0
    4.5981    3.0194    0.0000 C   0  0  0  0  0  0  0  0  0  0  0  0
    3.7320   -0.4806    0.0000 C   0  0  0  0  0  0  0  0  0  0  0  0
    2.0000   -0.4806    0.0000 C   0  0  0  0  0  0  0  0  0  0  0  0
    2.8660    1.0194    0.0000 C   0  0  0  0  0  0  0  0  0  0  0  0
    3.6750   -3.5684    0.0000 C   0  0  0  0  0  0  0  0  0  0  0  0
    2.0570   -3.5684    0.0000 C   0  0  0  0  0  0  0  0  0  0  0  0
    2.8660    3.0194    0.0000 C   0  0  0  0  0  0  0  0  0  0  0  0
    4.5981    4.0194    0.0000 C   0  0  0  0  0  0  0  0  0  0  0  0
    2.3660   -4.5194    0.0000 C   0  0  0  0  0  0  0  0  0  0  0  0
    3.3660   -4.5194    0.0000 C   0  0  0  0  0  0  0  0  0  0  0  0
    5.4641    2.5194    0.0000 C   0  0  0  0  0  0  0  0  0  0  0  0
    2.8660    4.0194    0.0000 C   0  0  0  0  0  0  0  0  0  0  0  0
    3.7320    4.5194    0.0000 C   0  0  0  0  0  0  0  0  0  0  0  0
    4.2690   -1.7906    0.0000 H   0  0  0  0  0  0  0  0  0  0  0  0
    1.4631   -1.7906    0.0000 H   0  0  0  0  0  0  0  0  0  0  0  0
    4.2690   -0.1706    0.0000 H   0  0  0  0  0  0  0  0  0  0  0  0
    1.4631   -0.1706    0.0000 H   0  0  0  0  0  0  0  0  0  0  0  0
    4.2690    1.2094    0.0000 H   0  0  0  0  0  0  0  0  0  0  0  0
    4.2647   -3.3768    0.0000 H   0  0  0  0  0  0  0  0  0  0  0  0
    1.4674   -3.3768    0.0000 H   0  0  0  0  0  0  0  0  0  0  0  0
    2.3291    2.7094    0.0000 H   0  0  0  0  0  0  0  0  0  0  0  0
    5.1350    4.3294    0.0000 H   0  0  0  0  0  0  0  0  0  0  0  0
    3.7304   -5.0210    0.0000 H   0  0  0  0  0  0  0  0  0  0  0  0
    2.0016   -5.0210    0.0000 H   0  0  0  0  0  0  0  0  0  0  0  0
    5.1541    1.9825    0.0000 H   0  0  0  0  0  0  0  0  0  0  0  0
    6.0010    2.2094    0.0000 H   0  0  0  0  0  0  0  0  0  0  0  0
    5.7741    3.0564    0.0000 H   0  0  0  0  0  0  0  0  0  0  0  0
    2.3291    4.3294    0.0000 H   0  0  0  0  0  0  0  0  0  0  0  0
    3.7320    5.1394    0.0000 H   0  0  0  0  0  0  0  0  0  0  0  0
  1 12  2  0  0  0  0
  2  4  1  0  0  0  0
  2 13  1  0  0  0  0
  2 14  1  0  0  0  0
  3  6  1  0  0  0  0
  3 12  1  0  0  0  0
  3 26  1  0  0  0  0
  4  7  2  0  0  0  0
  4  8  1  0  0  0  0
  5 10  2  0  0  0  0
  5 11  1  0  0  0  0
  5 12  1  0  0  0  0
  6  9  1  0  0  0  0
  6 15  2  0  0  0  0
  7 10  1  0  0  0  0
  7 22  1  0  0  0  0
  8 11  2  0  0  0  0
  8 23  1  0  0  0  0
  9 16  2  0  0  0  0
  9 19  1  0  0  0  0
 10 24  1  0  0  0  0
 11 25  1  0  0  0  0
 13 18  2  0  0  0  0
 13 27  1  0  0  0  0
 14 17  2  0  0  0  0
 14 28  1  0  0  0  0
 15 20  1  0  0  0  0
 15 29  1  0  0  0  0
 16 21  1  0  0  0  0
 16 30  1  0  0  0  0
 17 18  1  0  0  0  0
 17 32  1  0  0  0  0
 18 31  1  0  0  0  0
 19 33  1  0  0  0  0
 19 34  1  0  0  0  0
 19 35  1  0  0  0  0
 20 21  2  0  0  0  0
 20 36  1  0  0  0  0
 21 37  1  0  0  0  0
M  END
> <PUBCHEM_COMPOUND_CID>
24072860

> <PUBCHEM_COMPOUND_CANONICALIZED>
1

> <PUBCHEM_CACTVS_COMPLEXITY>
343

> <PUBCHEM_CACTVS_HBOND_ACCEPTOR>
1

> <PUBCHEM_CACTVS_HBOND_DONOR>
1

> <PUBCHEM_CACTVS_ROTATABLE_BOND>
3

> <PUBCHEM_CACTVS_SUBSKEYS>
AAADceB7IAAAAAAAAAAAAAAAAAAAAWAAAAAwYAAAAAAAAAAB0AAAHgAQAAAADAjBmgQ+wJPMEACoAjV3VACCgCA1AiAI2CE4ZNgIIPLAlZGEIQhglADIyYcYiQCeCAAAAAACAAAQAAAAAAQAAAAAAAAAAA==

> <PUBCHEM_IUPAC_OPENEYE_NAME>
N-(o-tolyl)-4-pyrrol-1-yl-benzamide

> <PUBCHEM_IUPAC_CAS_NAME>
N-(2-methylphenyl)-4-(1-pyrrolyl)benzamide

> <PUBCHEM_IUPAC_NAME>
N-(2-methylphenyl)-4-pyrrol-1-ylbenzamide

> <PUBCHEM_IUPAC_SYSTEMATIC_NAME>
N-(2-methylphenyl)-4-pyrrol-1-yl-benzamide

> <PUBCHEM_IUPAC_TRADITIONAL_NAME>
N-(o-tolyl)-4-pyrrol-1-yl-benzamide

> <PUBCHEM_IUPAC_INCHI>
InChI=1S/C18H16N2O/c1-14-6-2-3-7-17(14)19-18(21)15-8-10-16(11-9-15)20-12-4-5-13-20/h2-13H,1H3,(H,19,21)

> <PUBCHEM_IUPAC_INCHIKEY>
MZQSPVKHOVQABB-UHFFFAOYSA-N

> <PUBCHEM_XLOGP3>
3.1

> <PUBCHEM_EXACT_MASS>
276.126263

> <PUBCHEM_MOLECULAR_FORMULA>
C18H16N2O

> <PUBCHEM_MOLECULAR_WEIGHT>
276.33244

> <PUBCHEM_OPENEYE_CAN_SMILES>
CC1=CC=CC=C1NC(=O)C2=CC=C(C=C2)N3C=CC=C3

> <PUBCHEM_OPENEYE_ISO_SMILES>
CC1=CC=CC=C1NC(=O)C2=CC=C(C=C2)N3C=CC=C3

> <PUBCHEM_CACTVS_TPSA>
34

> <PUBCHEM_MONOISOTOPIC_WEIGHT>
276.126263

> <PUBCHEM_TOTAL_CHARGE>
0

> <PUBCHEM_HEAVY_ATOM_COUNT>
21

> <PUBCHEM_ATOM_DEF_STEREO_COUNT>
0

> <PUBCHEM_ATOM_UDEF_STEREO_COUNT>
0

> <PUBCHEM_BOND_DEF_STEREO_COUNT>
0

> <PUBCHEM_BOND_UDEF_STEREO_COUNT>
0

> <PUBCHEM_ISOTOPIC_ATOM_COUNT>
0

> <PUBCHEM_COMPONENT_COUNT>
1

> <PUBCHEM_CACTVS_TAUTO_COUNT>
2

> <PUBCHEM_COORDINATE_TYPE>
1
5
255

> <PUBCHEM_BONDANNOTATIONS>
13  18  8
14  17  8
15  20  8
16  21  8
17  18  8
2  13  8
2  14  8
20  21  8
4  7  8
4  8  8
5  10  8
5  11  8
6  15  8
6  9  8
7  10  8
8  11  8
9  16  8

$$$$
