65177835
  -OEChem-11301218252D

 32 33  0     0  0  0  0  0  0999 V2000
    7.2566    1.4807    0.0000 O   0  0  0  0  0  0  0  0  0  0  0  0
    4.6783   -0.8327    0.0000 N   0  0  0  0  0  0  0  0  0  0  0  0
    4.9889    0.1178    0.0000 C   0  0  0  0  0  0  0  0  0  0  0  0
    5.9674    0.3240    0.0000 C   0  0  0  0  0  0  0  0  0  0  0  0
    3.7320   -1.1375    0.0000 C   0  0  0  0  0  0  0  0  0  0  0  0
    3.7320   -2.1375    0.0000 C   0  0  0  0  0  0  0  0  0  0  0  0
    5.2619   -1.6375    0.0000 C   0  0  0  0  0  0  0  0  0  0  0  0
    6.2781    1.2745    0.0000 C   0  0  0  0  0  0  0  0  0  0  0  0
    4.6783   -2.4422    0.0000 C   0  0  0  0  0  0  0  0  0  0  0  0
    2.8660   -0.6375    0.0000 C   0  0  0  0  0  0  0  0  0  0  0  0
    2.8660   -2.6375    0.0000 C   0  0  0  0  0  0  0  0  0  0  0  0
    2.0000   -1.1375    0.0000 C   0  0  0  0  0  0  0  0  0  0  0  0
    2.0000   -2.1375    0.0000 C   0  0  0  0  0  0  0  0  0  0  0  0
    7.5673    2.4313    0.0000 C   0  0  0  0  0  0  0  0  0  0  0  0
    8.5458    2.6375    0.0000 C   0  0  0  0  0  0  0  0  0  0  0  0
    4.9684    0.7374    0.0000 H   0  0  0  0  0  0  0  0  0  0  0  0
    4.3751    0.2051    0.0000 H   0  0  0  0  0  0  0  0  0  0  0  0
    5.9880   -0.2957    0.0000 H   0  0  0  0  0  0  0  0  0  0  0  0
    6.5812    0.2366    0.0000 H   0  0  0  0  0  0  0  0  0  0  0  0
    5.8819   -1.6375    0.0000 H   0  0  0  0  0  0  0  0  0  0  0  0
    6.2575    1.8942    0.0000 H   0  0  0  0  0  0  0  0  0  0  0  0
    5.6643    1.3619    0.0000 H   0  0  0  0  0  0  0  0  0  0  0  0
    4.8709   -3.0315    0.0000 H   0  0  0  0  0  0  0  0  0  0  0  0
    2.8660   -0.0175    0.0000 H   0  0  0  0  0  0  0  0  0  0  0  0
    2.8660   -3.2575    0.0000 H   0  0  0  0  0  0  0  0  0  0  0  0
    1.4631   -0.8275    0.0000 H   0  0  0  0  0  0  0  0  0  0  0  0
    1.4631   -2.4475    0.0000 H   0  0  0  0  0  0  0  0  0  0  0  0
    7.5467    3.0509    0.0000 H   0  0  0  0  0  0  0  0  0  0  0  0
    6.9534    2.5186    0.0000 H   0  0  0  0  0  0  0  0  0  0  0  0
    8.6736    2.0308    0.0000 H   0  0  0  0  0  0  0  0  0  0  0  0
    9.1524    2.7653    0.0000 H   0  0  0  0  0  0  0  0  0  0  0  0
    8.4179    3.2442    0.0000 H   0  0  0  0  0  0  0  0  0  0  0  0
  1  8  1  0  0  0  0
  1 14  1  0  0  0  0
  2  3  1  0  0  0  0
  2  5  1  0  0  0  0
  2  7  1  0  0  0  0
  3  4  1  0  0  0  0
  3 16  1  0  0  0  0
  3 17  1  0  0  0  0
  4  8  1  0  0  0  0
  4 18  1  0  0  0  0
  4 19  1  0  0  0  0
  5  6  1  0  0  0  0
  5 10  2  0  0  0  0
  6  9  1  0  0  0  0
  6 11  2  0  0  0  0
  7  9  2  0  0  0  0
  7 20  1  0  0  0  0
  8 21  1  0  0  0  0
  8 22  1  0  0  0  0
  9 23  1  0  0  0  0
 10 12  1  0  0  0  0
 10 24  1  0  0  0  0
 11 13  1  0  0  0  0
 11 25  1  0  0  0  0
 12 13  2  0  0  0  0
 12 26  1  0  0  0  0
 13 27  1  0  0  0  0
 14 15  1  0  0  0  0
 14 28  1  0  0  0  0
 14 29  1  0  0  0  0
 15 30  1  0  0  0  0
 15 31  1  0  0  0  0
 15 32  1  0  0  0  0
M  END
> <PUBCHEM_COMPOUND_CID>
65177835

> <PUBCHEM_COMPOUND_CANONICALIZED>
1

> <PUBCHEM_CACTVS_COMPLEXITY>
183

> <PUBCHEM_CACTVS_HBOND_ACCEPTOR>
1

> <PUBCHEM_CACTVS_HBOND_DONOR>
0

> <PUBCHEM_CACTVS_ROTATABLE_BOND>
5

> <PUBCHEM_CACTVS_SUBSKEYS>
AAADceByIAAAAAAAAAAAAAAAAAAAAWAAAAAwAAAAAAAAAFgB8AAAHgAAAAAADAjhngY+wPMMFACgAzRnRACCgCAxAiAI2CA4ZJgIIOLAkZGGIAhigADIyAcQgIAOAAAAAAACAAAAAAAAAAQAAAAAAAAAAA==

> <PUBCHEM_IUPAC_OPENEYE_NAME>
1-(3-ethoxypropyl)indole

> <PUBCHEM_IUPAC_CAS_NAME>
1-(3-ethoxypropyl)indole

> <PUBCHEM_IUPAC_NAME>
1-(3-ethoxypropyl)indole

> <PUBCHEM_IUPAC_SYSTEMATIC_NAME>
1-(3-ethoxypropyl)indole

> <PUBCHEM_IUPAC_TRADITIONAL_NAME>
1-(3-ethoxypropyl)indole

> <PUBCHEM_IUPAC_INCHI>
InChI=1S/C13H17NO/c1-2-15-11-5-9-14-10-8-12-6-3-4-7-13(12)14/h3-4,6-8,10H,2,5,9,11H2,1H3

> <PUBCHEM_IUPAC_INCHIKEY>
GIKANDAMBSBHCG-UHFFFAOYSA-N

> <PUBCHEM_XLOGP3>
3.2

> <PUBCHEM_EXACT_MASS>
203.131014

> <PUBCHEM_MOLECULAR_FORMULA>
C13H17NO

> <PUBCHEM_MOLECULAR_WEIGHT>
203.28018

> <PUBCHEM_OPENEYE_CAN_SMILES>
CCOCCCN1C=CC2=CC=CC=C21

> <PUBCHEM_OPENEYE_ISO_SMILES>
CCOCCCN1C=CC2=CC=CC=C21

> <PUBCHEM_CACTVS_TPSA>
14.2

> <PUBCHEM_MONOISOTOPIC_WEIGHT>
203.131014

> <PUBCHEM_TOTAL_CHARGE>
0

> <PUBCHEM_HEAVY_ATOM_COUNT>
15

> <PUBCHEM_ATOM_DEF_STEREO_COUNT>
0

> <PUBCHEM_ATOM_UDEF_STEREO_COUNT>
0

> <PUBCHEM_BOND_DEF_STEREO_COUNT>
0

> <PUBCHEM_BOND_UDEF_STEREO_COUNT>
0

> <PUBCHEM_ISOTOPIC_ATOM_COUNT>
0

> <PUBCHEM_COMPONENT_COUNT>
1

> <PUBCHEM_CACTVS_TAUTO_COUNT>
1

> <PUBCHEM_COORDINATE_TYPE>
1
5
255

> <PUBCHEM_BONDANNOTATIONS>
10  12  8
11  13  8
12  13  8
2  5  8
2  7  8
5  10  8
5  6  8
6  11  8
6  9  8
7  9  8

$$$$
65177836
  -OEChem-11301218252D

 35 36  0     0  0  0  0  0  0999 V2000
    7.2566    1.4807    0.0000 O   0  0  0  0  0  0  0  0  0  0  0  0
    4.6783   -0.8327    0.0000 N   0  0  0  0  0  0  0  0  0  0  0  0
    4.9889    0.1178    0.0000 C   0  0  0  0  0  0  0  0  0  0  0  0
    3.7320   -1.1375    0.0000 C   0  0  0  0  0  0  0  0  0  0  0  0
    5.2619   -1.6375    0.0000 C   0  0  0  0  0  0  0  0  0  0  0  0
    5.9674    0.3240    0.0000 C   0  0  0  0  0  0  0  0  0  0  0  0
    3.7320   -2.1375    0.0000 C   0  0  0  0  0  0  0  0  0  0  0  0
    4.6783   -2.4422    0.0000 C   0  0  0  0  0  0  0  0  0  0  0  0
    6.2781    1.2745    0.0000 C   0  0  0  0  0  0  0  0  0  0  0  0
    2.8660   -0.6375    0.0000 C   0  0  0  0  0  0  0  0  0  0  0  0
    6.2619   -1.6375    0.0000 C   0  0  0  0  0  0  0  0  0  0  0  0
    2.8660   -2.6375    0.0000 C   0  0  0  0  0  0  0  0  0  0  0  0
    2.0000   -1.1375    0.0000 C   0  0  0  0  0  0  0  0  0  0  0  0
    2.0000   -2.1375    0.0000 C   0  0  0  0  0  0  0  0  0  0  0  0
    7.5673    2.4313    0.0000 C   0  0  0  0  0  0  0  0  0  0  0  0
    8.5458    2.6375    0.0000 C   0  0  0  0  0  0  0  0  0  0  0  0
    4.9684    0.7374    0.0000 H   0  0  0  0  0  0  0  0  0  0  0  0
    4.3751    0.2051    0.0000 H   0  0  0  0  0  0  0  0  0  0  0  0
    5.9880   -0.2957    0.0000 H   0  0  0  0  0  0  0  0  0  0  0  0
    6.5812    0.2366    0.0000 H   0  0  0  0  0  0  0  0  0  0  0  0
    4.8709   -3.0315    0.0000 H   0  0  0  0  0  0  0  0  0  0  0  0
    6.2575    1.8942    0.0000 H   0  0  0  0  0  0  0  0  0  0  0  0
    5.6643    1.3619    0.0000 H   0  0  0  0  0  0  0  0  0  0  0  0
    2.8660   -0.0175    0.0000 H   0  0  0  0  0  0  0  0  0  0  0  0
    6.2619   -2.2575    0.0000 H   0  0  0  0  0  0  0  0  0  0  0  0
    6.8819   -1.6375    0.0000 H   0  0  0  0  0  0  0  0  0  0  0  0
    6.2619   -1.0175    0.0000 H   0  0  0  0  0  0  0  0  0  0  0  0
    2.8660   -3.2575    0.0000 H   0  0  0  0  0  0  0  0  0  0  0  0
    1.4631   -0.8275    0.0000 H   0  0  0  0  0  0  0  0  0  0  0  0
    1.4631   -2.4475    0.0000 H   0  0  0  0  0  0  0  0  0  0  0  0
    7.5467    3.0509    0.0000 H   0  0  0  0  0  0  0  0  0  0  0  0
    6.9534    2.5186    0.0000 H   0  0  0  0  0  0  0  0  0  0  0  0
    8.6736    2.0308    0.0000 H   0  0  0  0  0  0  0  0  0  0  0  0
    9.1524    2.7653    0.0000 H   0  0  0  0  0  0  0  0  0  0  0  0
    8.4179    3.2442    0.0000 H   0  0  0  0  0  0  0  0  0  0  0  0
  1  9  1  0  0  0  0
  1 15  1  0  0  0  0
  2  3  1  0  0  0  0
  2  4  1  0  0  0  0
  2  5  1  0  0  0  0
  3  6  1  0  0  0  0
  3 17  1  0  0  0  0
  3 18  1  0  0  0  0
  4  7  1  0  0  0  0
  4 10  2  0  0  0  0
  5  8  2  0  0  0  0
  5 11  1  0  0  0  0
  6  9  1  0  0  0  0
  6 19  1  0  0  0  0
  6 20  1  0  0  0  0
  7  8  1  0  0  0  0
  7 12  2  0  0  0  0
  8 21  1  0  0  0  0
  9 22  1  0  0  0  0
  9 23  1  0  0  0  0
 10 13  1  0  0  0  0
 10 24  1  0  0  0  0
 11 25  1  0  0  0  0
 11 26  1  0  0  0  0
 11 27  1  0  0  0  0
 12 14  1  0  0  0  0
 12 28  1  0  0  0  0
 13 14  2  0  0  0  0
 13 29  1  0  0  0  0
 14 30  1  0  0  0  0
 15 16  1  0  0  0  0
 15 31  1  0  0  0  0
 15 32  1  0  0  0  0
 16 33  1  0  0  0  0
 16 34  1  0  0  0  0
 16 35  1  0  0  0  0
M  END
> <PUBCHEM_COMPOUND_CID>
65177836

> <PUBCHEM_COMPOUND_CANONICALIZED>
1

> <PUBCHEM_CACTVS_COMPLEXITY>
207

> <PUBCHEM_CACTVS_HBOND_ACCEPTOR>
1

> <PUBCHEM_CACTVS_HBOND_DONOR>
0

> <PUBCHEM_CACTVS_ROTATABLE_BOND>
5

> <PUBCHEM_CACTVS_SUBSKEYS>
AAADceByIAAAAAAAAAAAAAAAAAAAAWAAAAAwAAAAAAAAAFgB8AAAHgAAAAAADAjhngYywPMMFACgAyRiRACCgCAhAiAI2CA4ZJgIIOLAkZGGIAhigADIyAcQgIAOAAAAAAACAAAAAAAAAAQAAAAAAAAAAA==

> <PUBCHEM_IUPAC_OPENEYE_NAME>
1-(3-ethoxypropyl)-2-methyl-indole

> <PUBCHEM_IUPAC_CAS_NAME>
1-(3-ethoxypropyl)-2-methylindole

> <PUBCHEM_IUPAC_NAME>
1-(3-ethoxypropyl)-2-methylindole

> <PUBCHEM_IUPAC_SYSTEMATIC_NAME>
1-(3-ethoxypropyl)-2-methyl-indole

> <PUBCHEM_IUPAC_TRADITIONAL_NAME>
1-(3-ethoxypropyl)-2-methyl-indole

> <PUBCHEM_IUPAC_INCHI>
InChI=1S/C14H19NO/c1-3-16-10-6-9-15-12(2)11-13-7-4-5-8-14(13)15/h4-5,7-8,11H,3,6,9-10H2,1-2H3

> <PUBCHEM_IUPAC_INCHIKEY>
YPTRBCBCSNNVQI-UHFFFAOYSA-N

> <PUBCHEM_XLOGP3>
3.3

> <PUBCHEM_EXACT_MASS>
217.146664

> <PUBCHEM_MOLECULAR_FORMULA>
C14H19NO

> <PUBCHEM_MOLECULAR_WEIGHT>
217.30676

> <PUBCHEM_OPENEYE_CAN_SMILES>
CCOCCCN1C(=CC2=CC=CC=C21)C

> <PUBCHEM_OPENEYE_ISO_SMILES>
CCOCCCN1C(=CC2=CC=CC=C21)C

> <PUBCHEM_CACTVS_TPSA>
14.2

> <PUBCHEM_MONOISOTOPIC_WEIGHT>
217.146664

> <PUBCHEM_TOTAL_CHARGE>
0

> <PUBCHEM_HEAVY_ATOM_COUNT>
16

> <PUBCHEM_ATOM_DEF_STEREO_COUNT>
0

> <PUBCHEM_ATOM_UDEF_STEREO_COUNT>
0

> <PUBCHEM_BOND_DEF_STEREO_COUNT>
0

> <PUBCHEM_BOND_UDEF_STEREO_COUNT>
0

> <PUBCHEM_ISOTOPIC_ATOM_COUNT>
0

> <PUBCHEM_COMPONENT_COUNT>
1

> <PUBCHEM_CACTVS_TAUTO_COUNT>
1

> <PUBCHEM_COORDINATE_TYPE>
1
5
255

> <PUBCHEM_BONDANNOTATIONS>
10  13  8
12  14  8
13  14  8
2  4  8
2  5  8
4  10  8
4  7  8
5  8  8
7  12  8
7  8  8

$$$$
65194647
  -OEChem-11301218262D

 39 41  0     0  0  0  0  0  0999 V2000
    3.3660   -2.2003    0.0000 N   0  0  0  0  0  0  0  0  0  0  0  0
    3.3660   -0.4683    0.0000 C   0  0  0  0  0  0  0  0  0  0  0  0
    2.8660    0.3977    0.0000 C   0  0  0  0  0  0  0  0  0  0  0  0
    2.5000   -0.9683    0.0000 C   0  0  0  0  0  0  0  0  0  0  0  0
    2.0000   -0.1023    0.0000 C   0  0  0  0  0  0  0  0  0  0  0  0
    4.2320    0.0317    0.0000 C   0  0  0  0  0  0  0  0  0  0  0  0
    3.8660   -1.3343    0.0000 C   0  0  0  0  0  0  0  0  0  0  0  0
    4.2320    1.0317    0.0000 C   0  0  0  0  0  0  0  0  0  0  0  0
    5.0981    1.5317    0.0000 C   0  0  0  0  0  0  0  0  0  0  0  0
    3.3660    1.5317    0.0000 C   0  0  0  0  0  0  0  0  0  0  0  0
    3.8660   -3.0664    0.0000 C   0  0  0  0  0  0  0  0  0  0  0  0
    5.0981    2.5317    0.0000 C   0  0  0  0  0  0  0  0  0  0  0  0
    3.3660    2.5317    0.0000 C   0  0  0  0  0  0  0  0  0  0  0  0
    5.9920    0.9970    0.0000 C   0  0  0  0  0  0  0  0  0  0  0  0
    4.2320    3.0317    0.0000 C   0  0  0  0  0  0  0  0  0  0  0  0
    5.9920    3.0664    0.0000 C   0  0  0  0  0  0  0  0  0  0  0  0
    6.8981    1.5109    0.0000 C   0  0  0  0  0  0  0  0  0  0  0  0
    6.8981    2.5525    0.0000 C   0  0  0  0  0  0  0  0  0  0  0  0
    1.9631   -1.2783    0.0000 H   0  0  0  0  0  0  0  0  0  0  0  0
    2.8100   -1.5052    0.0000 H   0  0  0  0  0  0  0  0  0  0  0  0
    3.4030    0.7077    0.0000 H   0  0  0  0  0  0  0  0  0  0  0  0
    2.5560    0.9347    0.0000 H   0  0  0  0  0  0  0  0  0  0  0  0
    1.6900    0.4347    0.0000 H   0  0  0  0  0  0  0  0  0  0  0  0
    1.4631   -0.4123    0.0000 H   0  0  0  0  0  0  0  0  0  0  0  0
    4.4441   -0.5509    0.0000 H   0  0  0  0  0  0  0  0  0  0  0  0
    4.8426    0.1394    0.0000 H   0  0  0  0  0  0  0  0  0  0  0  0
    4.3410   -1.7328    0.0000 H   0  0  0  0  0  0  0  0  0  0  0  0
    4.3410   -0.9358    0.0000 H   0  0  0  0  0  0  0  0  0  0  0  0
    2.7460   -2.2003    0.0000 H   0  0  0  0  0  0  0  0  0  0  0  0
    2.8291    1.2217    0.0000 H   0  0  0  0  0  0  0  0  0  0  0  0
    3.3291   -3.3764    0.0000 H   0  0  0  0  0  0  0  0  0  0  0  0
    4.1760   -3.6033    0.0000 H   0  0  0  0  0  0  0  0  0  0  0  0
    4.4030   -2.7564    0.0000 H   0  0  0  0  0  0  0  0  0  0  0  0
    2.8291    2.8417    0.0000 H   0  0  0  0  0  0  0  0  0  0  0  0
    5.9848    0.3771    0.0000 H   0  0  0  0  0  0  0  0  0  0  0  0
    4.2320    3.6517    0.0000 H   0  0  0  0  0  0  0  0  0  0  0  0
    5.9848    3.6863    0.0000 H   0  0  0  0  0  0  0  0  0  0  0  0
    7.4338    1.1988    0.0000 H   0  0  0  0  0  0  0  0  0  0  0  0
    7.4338    2.8646    0.0000 H   0  0  0  0  0  0  0  0  0  0  0  0
  1  7  1  0  0  0  0
  1 11  1  0  0  0  0
  1 29  1  0  0  0  0
  2  3  1  0  0  0  0
  2  4  1  0  0  0  0
  2  6  1  0  0  0  0
  2  7  1  0  0  0  0
  3  5  1  0  0  0  0
  3 21  1  0  0  0  0
  3 22  1  0  0  0  0
  4  5  1  0  0  0  0
  4 19  1  0  0  0  0
  4 20  1  0  0  0  0
  5 23  1  0  0  0  0
  5 24  1  0  0  0  0
  6  8  1  0  0  0  0
  6 25  1  0  0  0  0
  6 26  1  0  0  0  0
  7 27  1  0  0  0  0
  7 28  1  0  0  0  0
  8  9  1  0  0  0  0
  8 10  2  0  0  0  0
  9 12  1  0  0  0  0
  9 14  2  0  0  0  0
 10 13  1  0  0  0  0
 10 30  1  0  0  0  0
 11 31  1  0  0  0  0
 11 32  1  0  0  0  0
 11 33  1  0  0  0  0
 12 15  1  0  0  0  0
 12 16  2  0  0  0  0
 13 15  2  0  0  0  0
 13 34  1  0  0  0  0
 14 17  1  0  0  0  0
 14 35  1  0  0  0  0
 15 36  1  0  0  0  0
 16 18  1  0  0  0  0
 16 37  1  0  0  0  0
 17 18  2  0  0  0  0
 17 38  1  0  0  0  0
 18 39  1  0  0  0  0
M  END
> <PUBCHEM_COMPOUND_CID>
65194647

> <PUBCHEM_COMPOUND_CANONICALIZED>
1

> <PUBCHEM_CACTVS_COMPLEXITY>
269

> <PUBCHEM_CACTVS_HBOND_ACCEPTOR>
1

> <PUBCHEM_CACTVS_HBOND_DONOR>
1

> <PUBCHEM_CACTVS_ROTATABLE_BOND>
4

> <PUBCHEM_CACTVS_SUBSKEYS>
AAADceB6AAAAAAAAAAAAAAAAAABgAAAAAAAwYAAAAAAAAADBUAAAHAAQAAAADgDBGAQyAMLAAACAAiBCAAACAAAgAAAIiIAIAIgIICKAkRCEIAAggAAIiAcQgMAPgAACAAAQAAAAAAQAACAAAAAAAAAAAA==

> <PUBCHEM_IUPAC_OPENEYE_NAME>
N-methyl-1-[1-(1-naphthylmethyl)cyclobutyl]methanamine

> <PUBCHEM_IUPAC_CAS_NAME>
N-methyl-1-[1-(1-naphthalenylmethyl)cyclobutyl]methanamine

> <PUBCHEM_IUPAC_NAME>
N-methyl-1-[1-(naphthalen-1-ylmethyl)cyclobutyl]methanamine

> <PUBCHEM_IUPAC_SYSTEMATIC_NAME>
N-methyl-1-[1-(naphthalen-1-ylmethyl)cyclobutyl]methanamine

> <PUBCHEM_IUPAC_TRADITIONAL_NAME>
methyl-[[1-(1-naphthylmethyl)cyclobutyl]methyl]amine

> <PUBCHEM_IUPAC_INCHI>
InChI=1S/C17H21N/c1-18-13-17(10-5-11-17)12-15-8-4-7-14-6-2-3-9-16(14)15/h2-4,6-9,18H,5,10-13H2,1H3

> <PUBCHEM_IUPAC_INCHIKEY>
BSYNNIMGCPDWEL-UHFFFAOYSA-N

> <PUBCHEM_XLOGP3>
4.6

> <PUBCHEM_EXACT_MASS>
239.1674

> <PUBCHEM_MOLECULAR_FORMULA>
C17H21N

> <PUBCHEM_MOLECULAR_WEIGHT>
239.35534

> <PUBCHEM_OPENEYE_CAN_SMILES>
CNCC1(CCC1)CC2=CC=CC3=CC=CC=C32

> <PUBCHEM_OPENEYE_ISO_SMILES>
CNCC1(CCC1)CC2=CC=CC3=CC=CC=C32

> <PUBCHEM_CACTVS_TPSA>
12

> <PUBCHEM_MONOISOTOPIC_WEIGHT>
239.1674

> <PUBCHEM_TOTAL_CHARGE>
0

> <PUBCHEM_HEAVY_ATOM_COUNT>
18

> <PUBCHEM_ATOM_DEF_STEREO_COUNT>
0

> <PUBCHEM_ATOM_UDEF_STEREO_COUNT>
0

> <PUBCHEM_BOND_DEF_STEREO_COUNT>
0

> <PUBCHEM_BOND_UDEF_STEREO_COUNT>
0

> <PUBCHEM_ISOTOPIC_ATOM_COUNT>
0

> <PUBCHEM_COMPONENT_COUNT>
1

> <PUBCHEM_CACTVS_TAUTO_COUNT>
1

> <PUBCHEM_COORDINATE_TYPE>
1
5
255

> <PUBCHEM_BONDANNOTATIONS>
10  13  8
12  15  8
12  16  8
13  15  8
14  17  8
16  18  8
17  18  8
8  10  8
8  9  8
9  12  8
9  14  8

$$$$
65194916
  -OEChem-11301218262D

 36 38  0     0  0  0  0  0  0999 V2000
    3.3660   -2.3649    0.0000 N   0  0  0  0  0  0  0  0  0  0  0  0
    3.3660   -0.6328    0.0000 C   0  0  0  0  0  0  0  0  0  0  0  0
    2.8660    0.2332    0.0000 C   0  0  0  0  0  0  0  0  0  0  0  0
    2.5000   -1.1328    0.0000 C   0  0  0  0  0  0  0  0  0  0  0  0
    2.0000   -0.2668    0.0000 C   0  0  0  0  0  0  0  0  0  0  0  0
    4.2320   -0.1328    0.0000 C   0  0  0  0  0  0  0  0  0  0  0  0
    3.8660   -1.4989    0.0000 C   0  0  0  0  0  0  0  0  0  0  0  0
    4.2320    0.8672    0.0000 C   0  0  0  0  0  0  0  0  0  0  0  0
    5.0981    1.3672    0.0000 C   0  0  0  0  0  0  0  0  0  0  0  0
    3.3660    1.3672    0.0000 C   0  0  0  0  0  0  0  0  0  0  0  0
    5.0981    2.3672    0.0000 C   0  0  0  0  0  0  0  0  0  0  0  0
    3.3660    2.3672    0.0000 C   0  0  0  0  0  0  0  0  0  0  0  0
    5.9920    0.8325    0.0000 C   0  0  0  0  0  0  0  0  0  0  0  0
    4.2320    2.8672    0.0000 C   0  0  0  0  0  0  0  0  0  0  0  0
    5.9920    2.9018    0.0000 C   0  0  0  0  0  0  0  0  0  0  0  0
    6.8981    1.3464    0.0000 C   0  0  0  0  0  0  0  0  0  0  0  0
    6.8981    2.3880    0.0000 C   0  0  0  0  0  0  0  0  0  0  0  0
    3.4030    0.5432    0.0000 H   0  0  0  0  0  0  0  0  0  0  0  0
    2.5560    0.7701    0.0000 H   0  0  0  0  0  0  0  0  0  0  0  0
    1.9631   -1.4428    0.0000 H   0  0  0  0  0  0  0  0  0  0  0  0
    2.8100   -1.6698    0.0000 H   0  0  0  0  0  0  0  0  0  0  0  0
    1.6900    0.2701    0.0000 H   0  0  0  0  0  0  0  0  0  0  0  0
    1.4631   -0.5768    0.0000 H   0  0  0  0  0  0  0  0  0  0  0  0
    4.4441   -0.7154    0.0000 H   0  0  0  0  0  0  0  0  0  0  0  0
    4.8426   -0.0252    0.0000 H   0  0  0  0  0  0  0  0  0  0  0  0
    4.3410   -1.8974    0.0000 H   0  0  0  0  0  0  0  0  0  0  0  0
    4.3410   -1.1003    0.0000 H   0  0  0  0  0  0  0  0  0  0  0  0
    3.6760   -2.9018    0.0000 H   0  0  0  0  0  0  0  0  0  0  0  0
    2.7460   -2.3649    0.0000 H   0  0  0  0  0  0  0  0  0  0  0  0
    2.8291    1.0572    0.0000 H   0  0  0  0  0  0  0  0  0  0  0  0
    2.8291    2.6772    0.0000 H   0  0  0  0  0  0  0  0  0  0  0  0
    5.9848    0.2125    0.0000 H   0  0  0  0  0  0  0  0  0  0  0  0
    4.2320    3.4872    0.0000 H   0  0  0  0  0  0  0  0  0  0  0  0
    5.9848    3.5218    0.0000 H   0  0  0  0  0  0  0  0  0  0  0  0
    7.4338    1.0343    0.0000 H   0  0  0  0  0  0  0  0  0  0  0  0
    7.4338    2.7000    0.0000 H   0  0  0  0  0  0  0  0  0  0  0  0
  1  7  1  0  0  0  0
  1 28  1  0  0  0  0
  1 29  1  0  0  0  0
  2  3  1  0  0  0  0
  2  4  1  0  0  0  0
  2  6  1  0  0  0  0
  2  7  1  0  0  0  0
  3  5  1  0  0  0  0
  3 18  1  0  0  0  0
  3 19  1  0  0  0  0
  4  5  1  0  0  0  0
  4 20  1  0  0  0  0
  4 21  1  0  0  0  0
  5 22  1  0  0  0  0
  5 23  1  0  0  0  0
  6  8  1  0  0  0  0
  6 24  1  0  0  0  0
  6 25  1  0  0  0  0
  7 26  1  0  0  0  0
  7 27  1  0  0  0  0
  8  9  1  0  0  0  0
  8 10  2  0  0  0  0
  9 11  1  0  0  0  0
  9 13  2  0  0  0  0
 10 12  1  0  0  0  0
 10 30  1  0  0  0  0
 11 14  1  0  0  0  0
 11 15  2  0  0  0  0
 12 14  2  0  0  0  0
 12 31  1  0  0  0  0
 13 16  1  0  0  0  0
 13 32  1  0  0  0  0
 14 33  1  0  0  0  0
 15 17  1  0  0  0  0
 15 34  1  0  0  0  0
 16 17  2  0  0  0  0
 16 35  1  0  0  0  0
 17 36  1  0  0  0  0
M  END
> <PUBCHEM_COMPOUND_CID>
65194916

> <PUBCHEM_COMPOUND_CANONICALIZED>
1

> <PUBCHEM_CACTVS_COMPLEXITY>
256

> <PUBCHEM_CACTVS_HBOND_ACCEPTOR>
1

> <PUBCHEM_CACTVS_HBOND_DONOR>
1

> <PUBCHEM_CACTVS_ROTATABLE_BOND>
3

> <PUBCHEM_CACTVS_SUBSKEYS>
AAADceB6AAAAAAAAAAAAAAAAAABgAAAAAAAwYAAAAAAAAADBUAAAHAAQAAAADgDBGAQwAMBAAACAAiBCAAACAAAgAAAIiIAAAIgIICKAkRCAIAAggAAIiAcQgMAPgAACAAAQAAAAAAQAACAAAAAAAAAAAA==

> <PUBCHEM_IUPAC_OPENEYE_NAME>
[1-(1-naphthylmethyl)cyclobutyl]methanamine

> <PUBCHEM_IUPAC_CAS_NAME>
[1-(1-naphthalenylmethyl)cyclobutyl]methanamine

> <PUBCHEM_IUPAC_NAME>
[1-(naphthalen-1-ylmethyl)cyclobutyl]methanamine

> <PUBCHEM_IUPAC_SYSTEMATIC_NAME>
[1-(naphthalen-1-ylmethyl)cyclobutyl]methanamine

> <PUBCHEM_IUPAC_TRADITIONAL_NAME>
[1-(1-naphthylmethyl)cyclobutyl]methylamine

> <PUBCHEM_IUPAC_INCHI>
InChI=1S/C16H19N/c17-12-16(9-4-10-16)11-14-7-3-6-13-5-1-2-8-15(13)14/h1-3,5-8H,4,9-12,17H2

> <PUBCHEM_IUPAC_INCHIKEY>
JFMJUVMBUWCQEO-UHFFFAOYSA-N

> <PUBCHEM_XLOGP3>
4.1

> <PUBCHEM_EXACT_MASS>
225.15175

> <PUBCHEM_MOLECULAR_FORMULA>
C16H19N

> <PUBCHEM_MOLECULAR_WEIGHT>
225.32876

> <PUBCHEM_OPENEYE_CAN_SMILES>
C1CC(C1)(CC2=CC=CC3=CC=CC=C32)CN

> <PUBCHEM_OPENEYE_ISO_SMILES>
C1CC(C1)(CC2=CC=CC3=CC=CC=C32)CN

> <PUBCHEM_CACTVS_TPSA>
26

> <PUBCHEM_MONOISOTOPIC_WEIGHT>
225.15175

> <PUBCHEM_TOTAL_CHARGE>
0

> <PUBCHEM_HEAVY_ATOM_COUNT>
17

> <PUBCHEM_ATOM_DEF_STEREO_COUNT>
0

> <PUBCHEM_ATOM_UDEF_STEREO_COUNT>
0

> <PUBCHEM_BOND_DEF_STEREO_COUNT>
0

> <PUBCHEM_BOND_UDEF_STEREO_COUNT>
0

> <PUBCHEM_ISOTOPIC_ATOM_COUNT>
0

> <PUBCHEM_COMPONENT_COUNT>
1

> <PUBCHEM_CACTVS_TAUTO_COUNT>
1

> <PUBCHEM_COORDINATE_TYPE>
1
5
255

> <PUBCHEM_BONDANNOTATIONS>
10  12  8
11  14  8
11  15  8
12  14  8
13  16  8
15  17  8
16  17  8
8  10  8
8  9  8
9  11  8
9  13  8

$$$$
65196334
  -OEChem-11301218262D

 33 35  0     0  0  0  0  0  0999 V2000
    3.8660   -1.9319    0.0000 N   0  0  0  0  0  0  0  0  0  0  0  0
    3.3660   -1.0658    0.0000 C   0  0  0  0  0  0  0  0  0  0  0  0
    2.8660   -0.1998    0.0000 C   0  0  0  0  0  0  0  0  0  0  0  0
    2.5000   -1.5658    0.0000 C   0  0  0  0  0  0  0  0  0  0  0  0
    2.0000   -0.6998    0.0000 C   0  0  0  0  0  0  0  0  0  0  0  0
    4.2320   -0.5658    0.0000 C   0  0  0  0  0  0  0  0  0  0  0  0
    4.2320    0.4342    0.0000 C   0  0  0  0  0  0  0  0  0  0  0  0
    5.0981    0.9342    0.0000 C   0  0  0  0  0  0  0  0  0  0  0  0
    3.3660    0.9342    0.0000 C   0  0  0  0  0  0  0  0  0  0  0  0
    5.0981    1.9342    0.0000 C   0  0  0  0  0  0  0  0  0  0  0  0
    5.9920    0.3995    0.0000 C   0  0  0  0  0  0  0  0  0  0  0  0
    3.3660    1.9342    0.0000 C   0  0  0  0  0  0  0  0  0  0  0  0
    4.2320    2.4341    0.0000 C   0  0  0  0  0  0  0  0  0  0  0  0
    5.9920    2.4688    0.0000 C   0  0  0  0  0  0  0  0  0  0  0  0
    6.8981    0.9133    0.0000 C   0  0  0  0  0  0  0  0  0  0  0  0
    6.8981    1.9550    0.0000 C   0  0  0  0  0  0  0  0  0  0  0  0
    3.4030    0.1102    0.0000 H   0  0  0  0  0  0  0  0  0  0  0  0
    2.5560    0.3371    0.0000 H   0  0  0  0  0  0  0  0  0  0  0  0
    1.9631   -1.8758    0.0000 H   0  0  0  0  0  0  0  0  0  0  0  0
    2.8100   -2.1028    0.0000 H   0  0  0  0  0  0  0  0  0  0  0  0
    1.6900   -0.1629    0.0000 H   0  0  0  0  0  0  0  0  0  0  0  0
    1.4631   -1.0098    0.0000 H   0  0  0  0  0  0  0  0  0  0  0  0
    4.4441   -1.1485    0.0000 H   0  0  0  0  0  0  0  0  0  0  0  0
    4.8426   -0.4582    0.0000 H   0  0  0  0  0  0  0  0  0  0  0  0
    3.5560   -2.4688    0.0000 H   0  0  0  0  0  0  0  0  0  0  0  0
    4.4860   -1.9319    0.0000 H   0  0  0  0  0  0  0  0  0  0  0  0
    2.8291    0.6242    0.0000 H   0  0  0  0  0  0  0  0  0  0  0  0
    5.9848   -0.2205    0.0000 H   0  0  0  0  0  0  0  0  0  0  0  0
    2.8291    2.2442    0.0000 H   0  0  0  0  0  0  0  0  0  0  0  0
    4.2320    3.0542    0.0000 H   0  0  0  0  0  0  0  0  0  0  0  0
    5.9848    3.0888    0.0000 H   0  0  0  0  0  0  0  0  0  0  0  0
    7.4338    0.6013    0.0000 H   0  0  0  0  0  0  0  0  0  0  0  0
    7.4338    2.2670    0.0000 H   0  0  0  0  0  0  0  0  0  0  0  0
  1  2  1  0  0  0  0
  1 25  1  0  0  0  0
  1 26  1  0  0  0  0
  2  3  1  0  0  0  0
  2  4  1  0  0  0  0
  2  6  1  0  0  0  0
  3  5  1  0  0  0  0
  3 17  1  0  0  0  0
  3 18  1  0  0  0  0
  4  5  1  0  0  0  0
  4 19  1  0  0  0  0
  4 20  1  0  0  0  0
  5 21  1  0  0  0  0
  5 22  1  0  0  0  0
  6  7  1  0  0  0  0
  6 23  1  0  0  0  0
  6 24  1  0  0  0  0
  7  8  1  0  0  0  0
  7  9  2  0  0  0  0
  8 10  1  0  0  0  0
  8 11  2  0  0  0  0
  9 12  1  0  0  0  0
  9 27  1  0  0  0  0
 10 13  1  0  0  0  0
 10 14  2  0  0  0  0
 11 15  1  0  0  0  0
 11 28  1  0  0  0  0
 12 13  2  0  0  0  0
 12 29  1  0  0  0  0
 13 30  1  0  0  0  0
 14 16  1  0  0  0  0
 14 31  1  0  0  0  0
 15 16  2  0  0  0  0
 15 32  1  0  0  0  0
 16 33  1  0  0  0  0
M  END
> <PUBCHEM_COMPOUND_CID>
65196334

> <PUBCHEM_COMPOUND_CANONICALIZED>
1

> <PUBCHEM_CACTVS_COMPLEXITY>
244

> <PUBCHEM_CACTVS_HBOND_ACCEPTOR>
1

> <PUBCHEM_CACTVS_HBOND_DONOR>
1

> <PUBCHEM_CACTVS_ROTATABLE_BOND>
2

> <PUBCHEM_CACTVS_SUBSKEYS>
AAADceByAAAAAAAAAAAAAAAAAABgAAAAAAAwYAAAAAAAAADBUAAAHAAQAAAADIiBGAAwAMBAAACAAiBCAAACAAAgAAAIiAAAAIgIICKAkRGAIAAgkAAIiAcQgMAOgAACAAAQAAAAAAQAACAAAAAAAAAAAA==

> <PUBCHEM_IUPAC_OPENEYE_NAME>
1-(1-naphthylmethyl)cyclobutanamine

> <PUBCHEM_IUPAC_CAS_NAME>
1-(1-naphthalenylmethyl)-1-cyclobutanamine

> <PUBCHEM_IUPAC_NAME>
1-(naphthalen-1-ylmethyl)cyclobutan-1-amine

> <PUBCHEM_IUPAC_SYSTEMATIC_NAME>
1-(naphthalen-1-ylmethyl)cyclobutan-1-amine

> <PUBCHEM_IUPAC_TRADITIONAL_NAME>
[1-(1-naphthylmethyl)cyclobutyl]amine

> <PUBCHEM_IUPAC_INCHI>
InChI=1S/C15H17N/c16-15(9-4-10-15)11-13-7-3-6-12-5-1-2-8-14(12)13/h1-3,5-8H,4,9-11,16H2

> <PUBCHEM_IUPAC_INCHIKEY>
TZDJMDRFLVABCA-UHFFFAOYSA-N

> <PUBCHEM_XLOGP3>
3.6

> <PUBCHEM_EXACT_MASS>
211.1361

> <PUBCHEM_MOLECULAR_FORMULA>
C15H17N

> <PUBCHEM_MOLECULAR_WEIGHT>
211.30218

> <PUBCHEM_OPENEYE_CAN_SMILES>
C1CC(C1)(CC2=CC=CC3=CC=CC=C32)N

> <PUBCHEM_OPENEYE_ISO_SMILES>
C1CC(C1)(CC2=CC=CC3=CC=CC=C32)N

> <PUBCHEM_CACTVS_TPSA>
26

> <PUBCHEM_MONOISOTOPIC_WEIGHT>
211.1361

> <PUBCHEM_TOTAL_CHARGE>
0

> <PUBCHEM_HEAVY_ATOM_COUNT>
16

> <PUBCHEM_ATOM_DEF_STEREO_COUNT>
0

> <PUBCHEM_ATOM_UDEF_STEREO_COUNT>
0

> <PUBCHEM_BOND_DEF_STEREO_COUNT>
0

> <PUBCHEM_BOND_UDEF_STEREO_COUNT>
0

> <PUBCHEM_ISOTOPIC_ATOM_COUNT>
0

> <PUBCHEM_COMPONENT_COUNT>
1

> <PUBCHEM_CACTVS_TAUTO_COUNT>
1

> <PUBCHEM_COORDINATE_TYPE>
1
5
255

> <PUBCHEM_BONDANNOTATIONS>
10  13  8
10  14  8
11  15  8
12  13  8
14  16  8
15  16  8
7  8  8
7  9  8
8  10  8
8  11  8
9  12  8

$$$$
