62632433
  -OEChem-11301218212D

 37 39  0     1  0  0  0  0  0999 V2000
    5.3147   -0.5958    0.0000 N   0  0  0  0  0  0  0  0  0  0  0  0
    8.8590    1.2089    0.0000 N   0  0  0  0  0  0  0  0  0  0  0  0
    3.5827   -0.5958    0.0000 C   0  0  0  0  0  0  0  0  0  0  0  0
    2.6691   -0.1891    0.0000 C   0  0  0  0  0  0  0  0  0  0  0  0
    3.4782   -1.5903    0.0000 C   0  0  0  0  0  0  0  0  0  0  0  0
    4.4487   -0.0958    0.0000 C   0  0  3  0  0  0  0  0  0  0  0  0
    2.0000   -0.9322    0.0000 C   0  0  0  0  0  0  0  0  0  0  0  0
    2.5000   -1.7982    0.0000 C   0  0  0  0  0  0  0  0  0  0  0  0
    4.4487    0.9042    0.0000 C   0  0  0  0  0  0  0  0  0  0  0  0
    6.1808   -0.0958    0.0000 C   0  0  0  0  0  0  0  0  0  0  0  0
    7.0468   -0.5958    0.0000 C   0  0  0  0  0  0  0  0  0  0  0  0
    6.1808    0.9042    0.0000 C   0  0  0  0  0  0  0  0  0  0  0  0
    7.9128   -0.0958    0.0000 C   0  0  0  0  0  0  0  0  0  0  0  0
    7.9128    0.9042    0.0000 C   0  0  0  0  0  0  0  0  0  0  0  0
    7.0468    1.4042    0.0000 C   0  0  0  0  0  0  0  0  0  0  0  0
    8.8590   -0.4005    0.0000 C   0  0  0  0  0  0  0  0  0  0  0  0
    9.4426    0.4042    0.0000 C   0  0  0  0  0  0  0  0  0  0  0  0
    4.1026   -0.9335    0.0000 H   0  0  0  0  0  0  0  0  0  0  0  0
    3.5430   -2.2069    0.0000 H   0  0  0  0  0  0  0  0  0  0  0  0
    4.0982   -1.5903    0.0000 H   0  0  0  0  0  0  0  0  0  0  0  0
    2.9791    0.3479    0.0000 H   0  0  0  0  0  0  0  0  0  0  0  0
    2.1675    0.1754    0.0000 H   0  0  0  0  0  0  0  0  0  0  0  0
    4.9856    0.2142    0.0000 H   0  0  0  0  0  0  0  0  0  0  0  0
    1.9336   -2.0504    0.0000 H   0  0  0  0  0  0  0  0  0  0  0  0
    2.6916   -2.3879    0.0000 H   0  0  0  0  0  0  0  0  0  0  0  0
    1.5851   -0.4715    0.0000 H   0  0  0  0  0  0  0  0  0  0  0  0
    1.4984   -1.2966    0.0000 H   0  0  0  0  0  0  0  0  0  0  0  0
    5.0687    0.9042    0.0000 H   0  0  0  0  0  0  0  0  0  0  0  0
    4.4487    1.5242    0.0000 H   0  0  0  0  0  0  0  0  0  0  0  0
    3.8287    0.9042    0.0000 H   0  0  0  0  0  0  0  0  0  0  0  0
    5.3147   -1.2158    0.0000 H   0  0  0  0  0  0  0  0  0  0  0  0
    7.0468   -1.2158    0.0000 H   0  0  0  0  0  0  0  0  0  0  0  0
    5.6438    1.2142    0.0000 H   0  0  0  0  0  0  0  0  0  0  0  0
    7.0468    2.0242    0.0000 H   0  0  0  0  0  0  0  0  0  0  0  0
    9.0516   -0.9899    0.0000 H   0  0  0  0  0  0  0  0  0  0  0  0
    9.0516    1.7982    0.0000 H   0  0  0  0  0  0  0  0  0  0  0  0
   10.0626    0.4042    0.0000 H   0  0  0  0  0  0  0  0  0  0  0  0
  1  6  1  0  0  0  0
  1 10  1  0  0  0  0
  1 31  1  0  0  0  0
  2 14  1  0  0  0  0
  2 17  1  0  0  0  0
  2 36  1  0  0  0  0
  3  4  1  0  0  0  0
  3  5  1  0  0  0  0
  3  6  1  0  0  0  0
  3 18  1  0  0  0  0
  4  7  1  0  0  0  0
  4 21  1  0  0  0  0
  4 22  1  0  0  0  0
  5  8  1  0  0  0  0
  5 19  1  0  0  0  0
  5 20  1  0  0  0  0
  6  9  1  0  0  0  0
  6 23  1  0  0  0  0
  7  8  1  0  0  0  0
  7 26  1  0  0  0  0
  7 27  1  0  0  0  0
  8 24  1  0  0  0  0
  8 25  1  0  0  0  0
  9 28  1  0  0  0  0
  9 29  1  0  0  0  0
  9 30  1  0  0  0  0
 10 11  2  0  0  0  0
 10 12  1  0  0  0  0
 11 13  1  0  0  0  0
 11 32  1  0  0  0  0
 12 15  2  0  0  0  0
 12 33  1  0  0  0  0
 13 14  2  0  0  0  0
 13 16  1  0  0  0  0
 14 15  1  0  0  0  0
 15 34  1  0  0  0  0
 16 17  2  0  0  0  0
 16 35  1  0  0  0  0
 17 37  1  0  0  0  0
M  END
> <PUBCHEM_COMPOUND_CID>
62632433

> <PUBCHEM_COMPOUND_CANONICALIZED>
1

> <PUBCHEM_CACTVS_COMPLEXITY>
247

> <PUBCHEM_CACTVS_HBOND_ACCEPTOR>
1

> <PUBCHEM_CACTVS_HBOND_DONOR>
2

> <PUBCHEM_CACTVS_ROTATABLE_BOND>
3

> <PUBCHEM_CACTVS_SUBSKEYS>
AAADceBzAAAAAAAAAAAAAAAAAAAAAeIAAAAwAAAAAAAAAFgB8AAAHAAQAAAADSjBHgQ+wPLJkACgAzRnRACCgCAxAiAI2aA4ZJgIIOLAkZGEIAhgkADIyAcQgIAOAACAQAACAAAAAQCAAAQAAAAAAAAAAA==

> <PUBCHEM_IUPAC_OPENEYE_NAME>
N-(1-cyclopentylethyl)-1H-indol-5-amine

> <PUBCHEM_IUPAC_CAS_NAME>
N-(1-cyclopentylethyl)-1H-indol-5-amine

> <PUBCHEM_IUPAC_NAME>
N-(1-cyclopentylethyl)-1H-indol-5-amine

> <PUBCHEM_IUPAC_SYSTEMATIC_NAME>
N-(1-cyclopentylethyl)-1H-indol-5-amine

> <PUBCHEM_IUPAC_TRADITIONAL_NAME>
1-cyclopentylethyl(1H-indol-5-yl)amine

> <PUBCHEM_IUPAC_INCHI>
InChI=1S/C15H20N2/c1-11(12-4-2-3-5-12)17-14-6-7-15-13(10-14)8-9-16-15/h6-12,16-17H,2-5H2,1H3

> <PUBCHEM_IUPAC_INCHIKEY>
APBJSJSVIALRBH-UHFFFAOYSA-N

> <PUBCHEM_XLOGP3>
4.6

> <PUBCHEM_EXACT_MASS>
228.162649

> <PUBCHEM_MOLECULAR_FORMULA>
C15H20N2

> <PUBCHEM_MOLECULAR_WEIGHT>
228.3327

> <PUBCHEM_OPENEYE_CAN_SMILES>
CC(C1CCCC1)NC2=CC3=C(C=C2)NC=C3

> <PUBCHEM_OPENEYE_ISO_SMILES>
CC(C1CCCC1)NC2=CC3=C(C=C2)NC=C3

> <PUBCHEM_CACTVS_TPSA>
27.8

> <PUBCHEM_MONOISOTOPIC_WEIGHT>
228.162649

> <PUBCHEM_TOTAL_CHARGE>
0

> <PUBCHEM_HEAVY_ATOM_COUNT>
17

> <PUBCHEM_ATOM_DEF_STEREO_COUNT>
0

> <PUBCHEM_ATOM_UDEF_STEREO_COUNT>
1

> <PUBCHEM_BOND_DEF_STEREO_COUNT>
0

> <PUBCHEM_BOND_UDEF_STEREO_COUNT>
0

> <PUBCHEM_ISOTOPIC_ATOM_COUNT>
0

> <PUBCHEM_COMPONENT_COUNT>
1

> <PUBCHEM_CACTVS_TAUTO_COUNT>
1

> <PUBCHEM_COORDINATE_TYPE>
1
5
255

> <PUBCHEM_BONDANNOTATIONS>
10  11  8
10  12  8
11  13  8
12  15  8
13  14  8
13  16  8
14  15  8
16  17  8
2  14  8
2  17  8
6  9  3

$$$$
62632661
  -OEChem-11301218222D

 43 45  0     1  0  0  0  0  0999 V2000
    5.3147   -0.4161    0.0000 N   0  0  0  0  0  0  0  0  0  0  0  0
    3.5827   -0.4161    0.0000 C   0  0  0  0  0  0  0  0  0  0  0  0
    4.4487    0.0839    0.0000 C   0  0  3  0  0  0  0  0  0  0  0  0
    3.4782   -1.4106    0.0000 C   0  0  0  0  0  0  0  0  0  0  0  0
    2.6691   -0.0094    0.0000 C   0  0  0  0  0  0  0  0  0  0  0  0
    2.5000   -1.6186    0.0000 C   0  0  0  0  0  0  0  0  0  0  0  0
    2.0000   -0.7525    0.0000 C   0  0  0  0  0  0  0  0  0  0  0  0
    6.1808    0.0839    0.0000 C   0  0  3  0  0  0  0  0  0  0  0  0
    6.1808    1.0839    0.0000 C   0  0  0  0  0  0  0  0  0  0  0  0
    7.0468   -0.4161    0.0000 C   0  0  0  0  0  0  0  0  0  0  0  0
    4.4487    1.0839    0.0000 C   0  0  0  0  0  0  0  0  0  0  0  0
    7.0468    1.5839    0.0000 C   0  0  0  0  0  0  0  0  0  0  0  0
    7.9128    0.0839    0.0000 C   0  0  0  0  0  0  0  0  0  0  0  0
    7.9128    1.0839    0.0000 C   0  0  0  0  0  0  0  0  0  0  0  0
    8.8067   -0.4508    0.0000 C   0  0  0  0  0  0  0  0  0  0  0  0
    8.8067    1.6186    0.0000 C   0  0  0  0  0  0  0  0  0  0  0  0
    9.7128    0.0631    0.0000 C   0  0  0  0  0  0  0  0  0  0  0  0
    9.7128    1.1047    0.0000 C   0  0  0  0  0  0  0  0  0  0  0  0
    4.1026   -0.7538    0.0000 H   0  0  0  0  0  0  0  0  0  0  0  0
    4.9856    0.3939    0.0000 H   0  0  0  0  0  0  0  0  0  0  0  0
    3.5430   -2.0272    0.0000 H   0  0  0  0  0  0  0  0  0  0  0  0
    4.0982   -1.4106    0.0000 H   0  0  0  0  0  0  0  0  0  0  0  0
    2.9791    0.5276    0.0000 H   0  0  0  0  0  0  0  0  0  0  0  0
    2.1675    0.3550    0.0000 H   0  0  0  0  0  0  0  0  0  0  0  0
    1.9336   -1.8707    0.0000 H   0  0  0  0  0  0  0  0  0  0  0  0
    2.6916   -2.2082    0.0000 H   0  0  0  0  0  0  0  0  0  0  0  0
    1.5851   -0.2918    0.0000 H   0  0  0  0  0  0  0  0  0  0  0  0
    1.4984   -1.1170    0.0000 H   0  0  0  0  0  0  0  0  0  0  0  0
    6.1808   -0.5361    0.0000 H   0  0  0  0  0  0  0  0  0  0  0  0
    5.3147   -1.0361    0.0000 H   0  0  0  0  0  0  0  0  0  0  0  0
    5.9687    1.6665    0.0000 H   0  0  0  0  0  0  0  0  0  0  0  0
    5.5702    0.9762    0.0000 H   0  0  0  0  0  0  0  0  0  0  0  0
    6.6482   -0.8911    0.0000 H   0  0  0  0  0  0  0  0  0  0  0  0
    7.4453   -0.8911    0.0000 H   0  0  0  0  0  0  0  0  0  0  0  0
    5.0687    1.0839    0.0000 H   0  0  0  0  0  0  0  0  0  0  0  0
    4.4487    1.7039    0.0000 H   0  0  0  0  0  0  0  0  0  0  0  0
    3.8287    1.0839    0.0000 H   0  0  0  0  0  0  0  0  0  0  0  0
    7.4453    2.0588    0.0000 H   0  0  0  0  0  0  0  0  0  0  0  0
    6.6482    2.0588    0.0000 H   0  0  0  0  0  0  0  0  0  0  0  0
    8.7996   -1.0707    0.0000 H   0  0  0  0  0  0  0  0  0  0  0  0
    8.7996    2.2385    0.0000 H   0  0  0  0  0  0  0  0  0  0  0  0
   10.2485   -0.2490    0.0000 H   0  0  0  0  0  0  0  0  0  0  0  0
   10.2485    1.4168    0.0000 H   0  0  0  0  0  0  0  0  0  0  0  0
  1  3  1  0  0  0  0
  1  8  1  0  0  0  0
  1 30  1  0  0  0  0
  2  3  1  0  0  0  0
  2  4  1  0  0  0  0
  2  5  1  0  0  0  0
  2 19  1  0  0  0  0
  3 11  1  0  0  0  0
  3 20  1  0  0  0  0
  4  6  1  0  0  0  0
  4 21  1  0  0  0  0
  4 22  1  0  0  0  0
  5  7  1  0  0  0  0
  5 23  1  0  0  0  0
  5 24  1  0  0  0  0
  6  7  1  0  0  0  0
  6 25  1  0  0  0  0
  6 26  1  0  0  0  0
  7 27  1  0  0  0  0
  7 28  1  0  0  0  0
  8  9  1  0  0  0  0
  8 10  1  0  0  0  0
  8 29  1  0  0  0  0
  9 12  1  0  0  0  0
  9 31  1  0  0  0  0
  9 32  1  0  0  0  0
 10 13  1  0  0  0  0
 10 33  1  0  0  0  0
 10 34  1  0  0  0  0
 11 35  1  0  0  0  0
 11 36  1  0  0  0  0
 11 37  1  0  0  0  0
 12 14  1  0  0  0  0
 12 38  1  0  0  0  0
 12 39  1  0  0  0  0
 13 14  1  0  0  0  0
 13 15  2  0  0  0  0
 14 16  2  0  0  0  0
 15 17  1  0  0  0  0
 15 40  1  0  0  0  0
 16 18  1  0  0  0  0
 16 41  1  0  0  0  0
 17 18  2  0  0  0  0
 17 42  1  0  0  0  0
 18 43  1  0  0  0  0
M  END
> <PUBCHEM_COMPOUND_CID>
62632661

> <PUBCHEM_COMPOUND_CANONICALIZED>
1

> <PUBCHEM_CACTVS_COMPLEXITY>
256

> <PUBCHEM_CACTVS_HBOND_ACCEPTOR>
1

> <PUBCHEM_CACTVS_HBOND_DONOR>
1

> <PUBCHEM_CACTVS_ROTATABLE_BOND>
3

> <PUBCHEM_CACTVS_SUBSKEYS>
AAADceB6AAAAAAAAAAAAAAAAAAAAAYAAAAAwYAAAAAAAAADBAAAAHAAQAAAADSjBGAQyAILAAACAAiBCAAACAAAgAAAIiIAIAIgIICKAkRGEIAAgkACIiAcQgIAOgAAAAAAQAAAQAACAACAAAAAAAAAAAA==

> <PUBCHEM_IUPAC_OPENEYE_NAME>
N-(1-cyclopentylethyl)tetralin-2-amine

> <PUBCHEM_IUPAC_CAS_NAME>
N-(1-cyclopentylethyl)-1,2,3,4-tetrahydronaphthalen-2-amine

> <PUBCHEM_IUPAC_NAME>
N-(1-cyclopentylethyl)-1,2,3,4-tetrahydronaphthalen-2-amine

> <PUBCHEM_IUPAC_SYSTEMATIC_NAME>
N-(1-cyclopentylethyl)-1,2,3,4-tetrahydronaphthalen-2-amine

> <PUBCHEM_IUPAC_TRADITIONAL_NAME>
1-cyclopentylethyl(tetralin-2-yl)amine

> <PUBCHEM_IUPAC_INCHI>
InChI=1S/C17H25N/c1-13(14-6-2-3-7-14)18-17-11-10-15-8-4-5-9-16(15)12-17/h4-5,8-9,13-14,17-18H,2-3,6-7,10-12H2,1H3

> <PUBCHEM_IUPAC_INCHIKEY>
BIKYMBCMRJJLMJ-UHFFFAOYSA-N

> <PUBCHEM_XLOGP3>
4.6

> <PUBCHEM_EXACT_MASS>
243.1987

> <PUBCHEM_MOLECULAR_FORMULA>
C17H25N

> <PUBCHEM_MOLECULAR_WEIGHT>
243.3871

> <PUBCHEM_OPENEYE_CAN_SMILES>
CC(C1CCCC1)NC2CCC3=CC=CC=C3C2

> <PUBCHEM_OPENEYE_ISO_SMILES>
CC(C1CCCC1)NC2CCC3=CC=CC=C3C2

> <PUBCHEM_CACTVS_TPSA>
12

> <PUBCHEM_MONOISOTOPIC_WEIGHT>
243.1987

> <PUBCHEM_TOTAL_CHARGE>
0

> <PUBCHEM_HEAVY_ATOM_COUNT>
18

> <PUBCHEM_ATOM_DEF_STEREO_COUNT>
0

> <PUBCHEM_ATOM_UDEF_STEREO_COUNT>
2

> <PUBCHEM_BOND_DEF_STEREO_COUNT>
0

> <PUBCHEM_BOND_UDEF_STEREO_COUNT>
0

> <PUBCHEM_ISOTOPIC_ATOM_COUNT>
0

> <PUBCHEM_COMPONENT_COUNT>
1

> <PUBCHEM_CACTVS_TAUTO_COUNT>
1

> <PUBCHEM_COORDINATE_TYPE>
1
5
255

> <PUBCHEM_BONDANNOTATIONS>
8  1  3
13  14  8
13  15  8
14  16  8
15  17  8
16  18  8
17  18  8
3  11  3

$$$$
62632963
  -OEChem-11301218222D

 43 45  0     1  0  0  0  0  0999 V2000
    6.2781    0.7656    0.0000 N   0  0  0  0  0  0  0  0  0  0  0  0
    4.6783   -2.9511    0.0000 N   0  0  0  0  0  0  0  0  0  0  0  0
    7.5673    1.9224    0.0000 C   0  0  0  0  0  0  0  0  0  0  0  0
    8.5189    2.2298    0.0000 C   0  0  0  0  0  0  0  0  0  0  0  0
    6.9809    2.7324    0.0000 C   0  0  0  0  0  0  0  0  0  0  0  0
    7.2566    0.9719    0.0000 C   0  0  3  0  0  0  0  0  0  0  0  0
    8.5206    3.2298    0.0000 C   0  0  0  0  0  0  0  0  0  0  0  0
    7.5701    3.5404    0.0000 C   0  0  0  0  0  0  0  0  0  0  0  0
    7.9244    0.2276    0.0000 C   0  0  0  0  0  0  0  0  0  0  0  0
    5.9674   -0.1849    0.0000 C   0  0  0  0  0  0  0  0  0  0  0  0
    4.9889   -0.3911    0.0000 C   0  0  0  0  0  0  0  0  0  0  0  0
    4.6783   -1.3416    0.0000 C   0  0  0  0  0  0  0  0  0  0  0  0
    3.7320   -1.6464    0.0000 C   0  0  0  0  0  0  0  0  0  0  0  0
    5.2619   -2.1464    0.0000 C   0  0  0  0  0  0  0  0  0  0  0  0
    3.7320   -2.6464    0.0000 C   0  0  0  0  0  0  0  0  0  0  0  0
    2.8660   -1.1464    0.0000 C   0  0  0  0  0  0  0  0  0  0  0  0
    2.8660   -3.1464    0.0000 C   0  0  0  0  0  0  0  0  0  0  0  0
    2.0000   -1.6464    0.0000 C   0  0  0  0  0  0  0  0  0  0  0  0
    2.0000   -2.6464    0.0000 C   0  0  0  0  0  0  0  0  0  0  0  0
    6.9547    1.8264    0.0000 H   0  0  0  0  0  0  0  0  0  0  0  0
    8.6467    1.6231    0.0000 H   0  0  0  0  0  0  0  0  0  0  0  0
    9.1356    2.2935    0.0000 H   0  0  0  0  0  0  0  0  0  0  0  0
    6.5208    3.1481    0.0000 H   0  0  0  0  0  0  0  0  0  0  0  0
    6.5194    2.3184    0.0000 H   0  0  0  0  0  0  0  0  0  0  0  0
    7.0640    0.3825    0.0000 H   0  0  0  0  0  0  0  0  0  0  0  0
    9.1371    3.1639    0.0000 H   0  0  0  0  0  0  0  0  0  0  0  0
    8.6505    3.8360    0.0000 H   0  0  0  0  0  0  0  0  0  0  0  0
    7.8232    4.1064    0.0000 H   0  0  0  0  0  0  0  0  0  0  0  0
    7.0337    3.8513    0.0000 H   0  0  0  0  0  0  0  0  0  0  0  0
    5.8640    1.2271    0.0000 H   0  0  0  0  0  0  0  0  0  0  0  0
    7.4630   -0.1865    0.0000 H   0  0  0  0  0  0  0  0  0  0  0  0
    8.3385   -0.2339    0.0000 H   0  0  0  0  0  0  0  0  0  0  0  0
    8.3859    0.6416    0.0000 H   0  0  0  0  0  0  0  0  0  0  0  0
    5.9880   -0.8045    0.0000 H   0  0  0  0  0  0  0  0  0  0  0  0
    6.5812   -0.2722    0.0000 H   0  0  0  0  0  0  0  0  0  0  0  0
    4.9684    0.2286    0.0000 H   0  0  0  0  0  0  0  0  0  0  0  0
    4.3751   -0.3038    0.0000 H   0  0  0  0  0  0  0  0  0  0  0  0
    5.8819   -2.1464    0.0000 H   0  0  0  0  0  0  0  0  0  0  0  0
    4.8709   -3.5404    0.0000 H   0  0  0  0  0  0  0  0  0  0  0  0
    2.8660   -0.5264    0.0000 H   0  0  0  0  0  0  0  0  0  0  0  0
    2.8660   -3.7664    0.0000 H   0  0  0  0  0  0  0  0  0  0  0  0
    1.4631   -1.3364    0.0000 H   0  0  0  0  0  0  0  0  0  0  0  0
    1.4631   -2.9564    0.0000 H   0  0  0  0  0  0  0  0  0  0  0  0
  1  6  1  0  0  0  0
  1 10  1  0  0  0  0
  1 30  1  0  0  0  0
  2 14  1  0  0  0  0
  2 15  1  0  0  0  0
  2 39  1  0  0  0  0
  3  4  1  0  0  0  0
  3  5  1  0  0  0  0
  3  6  1  0  0  0  0
  3 20  1  0  0  0  0
  4  7  1  0  0  0  0
  4 21  1  0  0  0  0
  4 22  1  0  0  0  0
  5  8  1  0  0  0  0
  5 23  1  0  0  0  0
  5 24  1  0  0  0  0
  6  9  1  0  0  0  0
  6 25  1  0  0  0  0
  7  8  1  0  0  0  0
  7 26  1  0  0  0  0
  7 27  1  0  0  0  0
  8 28  1  0  0  0  0
  8 29  1  0  0  0  0
  9 31  1  0  0  0  0
  9 32  1  0  0  0  0
  9 33  1  0  0  0  0
 10 11  1  0  0  0  0
 10 34  1  0  0  0  0
 10 35  1  0  0  0  0
 11 12  1  0  0  0  0
 11 36  1  0  0  0  0
 11 37  1  0  0  0  0
 12 13  1  0  0  0  0
 12 14  2  0  0  0  0
 13 15  1  0  0  0  0
 13 16  2  0  0  0  0
 14 38  1  0  0  0  0
 15 17  2  0  0  0  0
 16 18  1  0  0  0  0
 16 40  1  0  0  0  0
 17 19  1  0  0  0  0
 17 41  1  0  0  0  0
 18 19  2  0  0  0  0
 18 42  1  0  0  0  0
 19 43  1  0  0  0  0
M  END
> <PUBCHEM_COMPOUND_CID>
62632963

> <PUBCHEM_COMPOUND_CANONICALIZED>
1

> <PUBCHEM_CACTVS_COMPLEXITY>
272

> <PUBCHEM_CACTVS_HBOND_ACCEPTOR>
1

> <PUBCHEM_CACTVS_HBOND_DONOR>
2

> <PUBCHEM_CACTVS_ROTATABLE_BOND>
5

> <PUBCHEM_CACTVS_SUBSKEYS>
AAADceB7AAAAAAAAAAAAAAAAAAAAAeIAAAAwAAAAAAAAAFgB8AAAHAAQAAAADSjBHgQ+wPLJkACgAzRnRACCgCAxAiAI2aA4ZJgIIOLAkZGEIAhgkADIyAcQgMAOgAAAAAACAAAAAAAAAAQAAAAAAAAAAA==

> <PUBCHEM_IUPAC_OPENEYE_NAME>
1-cyclopentyl-N-[2-(1H-indol-3-yl)ethyl]ethanamine

> <PUBCHEM_IUPAC_CAS_NAME>
1-cyclopentyl-N-[2-(1H-indol-3-yl)ethyl]ethanamine

> <PUBCHEM_IUPAC_NAME>
1-cyclopentyl-N-[2-(1H-indol-3-yl)ethyl]ethanamine

> <PUBCHEM_IUPAC_SYSTEMATIC_NAME>
1-cyclopentyl-N-[2-(1H-indol-3-yl)ethyl]ethanamine

> <PUBCHEM_IUPAC_TRADITIONAL_NAME>
1-cyclopentylethyl-[2-(1H-indol-3-yl)ethyl]amine

> <PUBCHEM_IUPAC_INCHI>
InChI=1S/C17H24N2/c1-13(14-6-2-3-7-14)18-11-10-15-12-19-17-9-5-4-8-16(15)17/h4-5,8-9,12-14,18-19H,2-3,6-7,10-11H2,1H3

> <PUBCHEM_IUPAC_INCHIKEY>
IFLKVGYZBBSLDR-UHFFFAOYSA-N

> <PUBCHEM_XLOGP3>
4.3

> <PUBCHEM_EXACT_MASS>
256.193949

> <PUBCHEM_MOLECULAR_FORMULA>
C17H24N2

> <PUBCHEM_MOLECULAR_WEIGHT>
256.38586

> <PUBCHEM_OPENEYE_CAN_SMILES>
CC(C1CCCC1)NCCC2=CNC3=CC=CC=C32

> <PUBCHEM_OPENEYE_ISO_SMILES>
CC(C1CCCC1)NCCC2=CNC3=CC=CC=C32

> <PUBCHEM_CACTVS_TPSA>
27.8

> <PUBCHEM_MONOISOTOPIC_WEIGHT>
256.193949

> <PUBCHEM_TOTAL_CHARGE>
0

> <PUBCHEM_HEAVY_ATOM_COUNT>
19

> <PUBCHEM_ATOM_DEF_STEREO_COUNT>
0

> <PUBCHEM_ATOM_UDEF_STEREO_COUNT>
1

> <PUBCHEM_BOND_DEF_STEREO_COUNT>
0

> <PUBCHEM_BOND_UDEF_STEREO_COUNT>
0

> <PUBCHEM_ISOTOPIC_ATOM_COUNT>
0

> <PUBCHEM_COMPONENT_COUNT>
1

> <PUBCHEM_CACTVS_TAUTO_COUNT>
1

> <PUBCHEM_COORDINATE_TYPE>
1
5
255

> <PUBCHEM_BONDANNOTATIONS>
12  13  8
12  14  8
13  15  8
13  16  8
15  17  8
16  18  8
17  19  8
18  19  8
2  14  8
2  15  8
6  9  3

$$$$
