66394358
  -OEChem-11301218282D

 35 38  0     1  0  0  0  0  0999 V2000
    4.3211    1.2482    0.0000 O   0  0  0  0  0  0  0  0  0  0  0  0
    4.6783   -2.0561    0.0000 N   0  0  0  0  0  0  0  0  0  0  0  0
    5.9674    0.7101    0.0000 C   0  0  3  0  0  0  0  0  0  0  0  0
    6.8132    0.1613    0.0000 C   0  0  0  0  0  0  0  0  0  0  0  0
    6.5198    1.5537    0.0000 C   0  0  0  0  0  0  0  0  0  0  0  0
    7.3586    1.0093    0.0000 C   0  0  0  0  0  0  0  0  0  0  0  0
    4.9889    0.5039    0.0000 C   0  0  0  0  0  0  0  0  0  0  0  0
    4.6783   -0.4466    0.0000 C   0  0  0  0  0  0  0  0  0  0  0  0
    6.5718    2.5523    0.0000 C   0  0  0  0  0  0  0  0  0  0  0  0
    8.2495    1.4636    0.0000 C   0  0  0  0  0  0  0  0  0  0  0  0
    3.7320   -0.7513    0.0000 C   0  0  0  0  0  0  0  0  0  0  0  0
    3.7320   -1.7513    0.0000 C   0  0  0  0  0  0  0  0  0  0  0  0
    5.2619   -1.2513    0.0000 C   0  0  0  0  0  0  0  0  0  0  0  0
    7.4627    3.0066    0.0000 C   0  0  0  0  0  0  0  0  0  0  0  0
    8.3015    2.4622    0.0000 C   0  0  0  0  0  0  0  0  0  0  0  0
    2.8660   -0.2513    0.0000 C   0  0  0  0  0  0  0  0  0  0  0  0
    2.8660   -2.2513    0.0000 C   0  0  0  0  0  0  0  0  0  0  0  0
    4.9889   -3.0066    0.0000 C   0  0  0  0  0  0  0  0  0  0  0  0
    2.0000   -0.7513    0.0000 C   0  0  0  0  0  0  0  0  0  0  0  0
    2.0000   -1.7513    0.0000 C   0  0  0  0  0  0  0  0  0  0  0  0
    5.6177    1.2221    0.0000 H   0  0  0  0  0  0  0  0  0  0  0  0
    6.4764   -0.3593    0.0000 H   0  0  0  0  0  0  0  0  0  0  0  0
    7.3342   -0.1748    0.0000 H   0  0  0  0  0  0  0  0  0  0  0  0
    6.0517    2.8898    0.0000 H   0  0  0  0  0  0  0  0  0  0  0  0
    8.7696    1.1261    0.0000 H   0  0  0  0  0  0  0  0  0  0  0  0
    5.8819   -1.2513    0.0000 H   0  0  0  0  0  0  0  0  0  0  0  0
    7.4949    3.6258    0.0000 H   0  0  0  0  0  0  0  0  0  0  0  0
    8.8538    2.7439    0.0000 H   0  0  0  0  0  0  0  0  0  0  0  0
    2.8660    0.3687    0.0000 H   0  0  0  0  0  0  0  0  0  0  0  0
    2.8660   -2.8713    0.0000 H   0  0  0  0  0  0  0  0  0  0  0  0
    4.3996   -3.1992    0.0000 H   0  0  0  0  0  0  0  0  0  0  0  0
    5.1815   -3.5959    0.0000 H   0  0  0  0  0  0  0  0  0  0  0  0
    5.5783   -2.8140    0.0000 H   0  0  0  0  0  0  0  0  0  0  0  0
    1.4631   -0.4413    0.0000 H   0  0  0  0  0  0  0  0  0  0  0  0
    1.4631   -2.0613    0.0000 H   0  0  0  0  0  0  0  0  0  0  0  0
  1  7  2  0  0  0  0
  2 12  1  0  0  0  0
  2 13  1  0  0  0  0
  2 18  1  0  0  0  0
  3  4  1  0  0  0  0
  3  5  1  0  0  0  0
  3  7  1  0  0  0  0
  3 21  1  0  0  0  0
  4  6  1  0  0  0  0
  4 22  1  0  0  0  0
  4 23  1  0  0  0  0
  5  6  1  0  0  0  0
  5  9  2  0  0  0  0
  6 10  2  0  0  0  0
  7  8  1  0  0  0  0
  8 11  1  0  0  0  0
  8 13  2  0  0  0  0
  9 14  1  0  0  0  0
  9 24  1  0  0  0  0
 10 15  1  0  0  0  0
 10 25  1  0  0  0  0
 11 12  1  0  0  0  0
 11 16  2  0  0  0  0
 12 17  2  0  0  0  0
 13 26  1  0  0  0  0
 14 15  2  0  0  0  0
 14 27  1  0  0  0  0
 15 28  1  0  0  0  0
 16 19  1  0  0  0  0
 16 29  1  0  0  0  0
 17 20  1  0  0  0  0
 17 30  1  0  0  0  0
 18 31  1  0  0  0  0
 18 32  1  0  0  0  0
 18 33  1  0  0  0  0
 19 20  2  0  0  0  0
 19 34  1  0  0  0  0
 20 35  1  0  0  0  0
M  END
> <PUBCHEM_COMPOUND_CID>
66394358

> <PUBCHEM_COMPOUND_CANONICALIZED>
1

> <PUBCHEM_CACTVS_COMPLEXITY>
393

> <PUBCHEM_CACTVS_HBOND_ACCEPTOR>
1

> <PUBCHEM_CACTVS_HBOND_DONOR>
0

> <PUBCHEM_CACTVS_ROTATABLE_BOND>
2

> <PUBCHEM_CACTVS_SUBSKEYS>
AAADccB6IAAAAAAAAAAAAAAAAABgAWAAAAAwYAAAAAAYAFgB9AAAHgAAAAAADQzBngQ+wPMMEACoA7R3RACCgCA1AiAI2CE4ZNgIIPrAlZGEIYhggADIyccciMCOgAAAAAASAAAAAAAAACQAAAAAAAAAAA==

> <PUBCHEM_IUPAC_OPENEYE_NAME>
7-bicyclo[4.2.0]octa-1,3,5-trienyl-(1-methylindol-3-yl)methanone

> <PUBCHEM_IUPAC_CAS_NAME>
7-bicyclo[4.2.0]octa-1,3,5-trienyl-(1-methyl-3-indolyl)methanone

> <PUBCHEM_IUPAC_NAME>
7-bicyclo[4.2.0]octa-1,3,5-trienyl-(1-methylindol-3-yl)methanone

> <PUBCHEM_IUPAC_SYSTEMATIC_NAME>
7-bicyclo[4.2.0]octa-1,3,5-trienyl-(1-methylindol-3-yl)methanone

> <PUBCHEM_IUPAC_TRADITIONAL_NAME>
7-bicyclo[4.2.0]octa-1,3,5-trienyl-(1-methylindol-3-yl)methanone

> <PUBCHEM_IUPAC_INCHI>
InChI=1S/C18H15NO/c1-19-11-16(14-8-4-5-9-17(14)19)18(20)15-10-12-6-2-3-7-13(12)15/h2-9,11,15H,10H2,1H3

> <PUBCHEM_IUPAC_INCHIKEY>
DZJYRLMLQFYIBE-UHFFFAOYSA-N

> <PUBCHEM_XLOGP3>
3.2

> <PUBCHEM_EXACT_MASS>
261.115364

> <PUBCHEM_MOLECULAR_FORMULA>
C18H15NO

> <PUBCHEM_MOLECULAR_WEIGHT>
261.3178

> <PUBCHEM_OPENEYE_CAN_SMILES>
CN1C=C(C2=CC=CC=C21)C(=O)C3CC4=CC=CC=C34

> <PUBCHEM_OPENEYE_ISO_SMILES>
CN1C=C(C2=CC=CC=C21)C(=O)C3CC4=CC=CC=C34

> <PUBCHEM_CACTVS_TPSA>
22

> <PUBCHEM_MONOISOTOPIC_WEIGHT>
261.115364

> <PUBCHEM_TOTAL_CHARGE>
0

> <PUBCHEM_HEAVY_ATOM_COUNT>
20

> <PUBCHEM_ATOM_DEF_STEREO_COUNT>
0

> <PUBCHEM_ATOM_UDEF_STEREO_COUNT>
1

> <PUBCHEM_BOND_DEF_STEREO_COUNT>
0

> <PUBCHEM_BOND_UDEF_STEREO_COUNT>
0

> <PUBCHEM_ISOTOPIC_ATOM_COUNT>
0

> <PUBCHEM_COMPONENT_COUNT>
1

> <PUBCHEM_CACTVS_TAUTO_COUNT>
2

> <PUBCHEM_COORDINATE_TYPE>
1
5
255

> <PUBCHEM_BONDANNOTATIONS>
10  15  8
11  12  8
11  16  8
12  17  8
14  15  8
16  19  8
17  20  8
19  20  8
2  12  8
2  13  8
3  7  3
5  6  8
5  9  8
6  10  8
8  11  8
8  13  8
9  14  8

$$$$
66397865
  -OEChem-11301218282D

 38 40  0     0  0  0  0  0  0999 V2000
    6.2781    0.2898    0.0000 N   0  0  0  0  0  0  0  0  0  0  0  0
    4.6783   -3.4269    0.0000 N   0  0  0  0  0  0  0  0  0  0  0  0
    7.5701    3.0646    0.0000 N   0  0  0  0  0  0  0  0  0  0  0  0
    4.9889   -0.8669    0.0000 C   0  0  0  0  0  0  0  0  0  0  0  0
    4.6783   -1.8174    0.0000 C   0  0  0  0  0  0  0  0  0  0  0  0
    5.9674   -0.6607    0.0000 C   0  0  0  0  0  0  0  0  0  0  0  0
    3.7320   -2.1222    0.0000 C   0  0  0  0  0  0  0  0  0  0  0  0
    3.7320   -3.1222    0.0000 C   0  0  0  0  0  0  0  0  0  0  0  0
    7.2566    0.4961    0.0000 C   0  0  0  0  0  0  0  0  0  0  0  0
    5.2619   -2.6222    0.0000 C   0  0  0  0  0  0  0  0  0  0  0  0
    7.5673    1.4466    0.0000 C   0  0  0  0  0  0  0  0  0  0  0  0
    2.8660   -1.6222    0.0000 C   0  0  0  0  0  0  0  0  0  0  0  0
    2.8660   -3.6222    0.0000 C   0  0  0  0  0  0  0  0  0  0  0  0
    6.9809    2.2566    0.0000 C   0  0  0  0  0  0  0  0  0  0  0  0
    8.5189    1.7540    0.0000 C   0  0  0  0  0  0  0  0  0  0  0  0
    2.0000   -2.1222    0.0000 C   0  0  0  0  0  0  0  0  0  0  0  0
    8.5206    2.7540    0.0000 C   0  0  0  0  0  0  0  0  0  0  0  0
    2.0000   -3.1222    0.0000 C   0  0  0  0  0  0  0  0  0  0  0  0
    7.2627    4.0162    0.0000 C   0  0  0  0  0  0  0  0  0  0  0  0
    4.9684   -0.2472    0.0000 H   0  0  0  0  0  0  0  0  0  0  0  0
    4.3751   -0.7795    0.0000 H   0  0  0  0  0  0  0  0  0  0  0  0
    5.9880   -1.2803    0.0000 H   0  0  0  0  0  0  0  0  0  0  0  0
    6.5812   -0.7480    0.0000 H   0  0  0  0  0  0  0  0  0  0  0  0
    7.2772   -0.1236    0.0000 H   0  0  0  0  0  0  0  0  0  0  0  0
    7.8704    0.4087    0.0000 H   0  0  0  0  0  0  0  0  0  0  0  0
    5.8640    0.7513    0.0000 H   0  0  0  0  0  0  0  0  0  0  0  0
    5.8819   -2.6222    0.0000 H   0  0  0  0  0  0  0  0  0  0  0  0
    4.8709   -4.0162    0.0000 H   0  0  0  0  0  0  0  0  0  0  0  0
    2.8660   -1.0022    0.0000 H   0  0  0  0  0  0  0  0  0  0  0  0
    2.8660   -4.2422    0.0000 H   0  0  0  0  0  0  0  0  0  0  0  0
    6.3609    2.2577    0.0000 H   0  0  0  0  0  0  0  0  0  0  0  0
    9.0198    1.3887    0.0000 H   0  0  0  0  0  0  0  0  0  0  0  0
    9.0228    3.1175    0.0000 H   0  0  0  0  0  0  0  0  0  0  0  0
    1.4631   -1.8122    0.0000 H   0  0  0  0  0  0  0  0  0  0  0  0
    1.4631   -3.4322    0.0000 H   0  0  0  0  0  0  0  0  0  0  0  0
    7.8527    4.2068    0.0000 H   0  0  0  0  0  0  0  0  0  0  0  0
    7.0721    4.6062    0.0000 H   0  0  0  0  0  0  0  0  0  0  0  0
    6.6727    3.8256    0.0000 H   0  0  0  0  0  0  0  0  0  0  0  0
  1  6  1  0  0  0  0
  1  9  1  0  0  0  0
  1 26  1  0  0  0  0
  2  8  1  0  0  0  0
  2 10  1  0  0  0  0
  2 28  1  0  0  0  0
  3 14  1  0  0  0  0
  3 17  1  0  0  0  0
  3 19  1  0  0  0  0
  4  5  1  0  0  0  0
  4  6  1  0  0  0  0
  4 20  1  0  0  0  0
  4 21  1  0  0  0  0
  5  7  1  0  0  0  0
  5 10  2  0  0  0  0
  6 22  1  0  0  0  0
  6 23  1  0  0  0  0
  7  8  1  0  0  0  0
  7 12  2  0  0  0  0
  8 13  2  0  0  0  0
  9 11  1  0  0  0  0
  9 24  1  0  0  0  0
  9 25  1  0  0  0  0
 10 27  1  0  0  0  0
 11 14  2  0  0  0  0
 11 15  1  0  0  0  0
 12 16  1  0  0  0  0
 12 29  1  0  0  0  0
 13 18  1  0  0  0  0
 13 30  1  0  0  0  0
 14 31  1  0  0  0  0
 15 17  2  0  0  0  0
 15 32  1  0  0  0  0
 16 18  2  0  0  0  0
 16 34  1  0  0  0  0
 17 33  1  0  0  0  0
 18 35  1  0  0  0  0
 19 36  1  0  0  0  0
 19 37  1  0  0  0  0
 19 38  1  0  0  0  0
M  END
> <PUBCHEM_COMPOUND_CID>
66397865

> <PUBCHEM_COMPOUND_CANONICALIZED>
1

> <PUBCHEM_CACTVS_COMPLEXITY>
281

> <PUBCHEM_CACTVS_HBOND_ACCEPTOR>
1

> <PUBCHEM_CACTVS_HBOND_DONOR>
2

> <PUBCHEM_CACTVS_ROTATABLE_BOND>
5

> <PUBCHEM_CACTVS_SUBSKEYS>
AAADceB7AAAAAAAAAAAAAAAAAAAAAWLAAAAwAAAAAAAAAFgB/AAAHAAQAAAADAjBHgQ+wPPNkACgAzRnRACCgCAxAiAI2aA4ZJgIIOLA0ZGEIAhgkADIyAcQgMAOgAAAAAACAAAAAAAAAAQAAAAAAAAAAA==

> <PUBCHEM_IUPAC_OPENEYE_NAME>
2-(1H-indol-3-yl)-N-[(1-methylpyrrol-3-yl)methyl]ethanamine

> <PUBCHEM_IUPAC_CAS_NAME>
2-(1H-indol-3-yl)-N-[(1-methyl-3-pyrrolyl)methyl]ethanamine

> <PUBCHEM_IUPAC_NAME>
2-(1H-indol-3-yl)-N-[(1-methylpyrrol-3-yl)methyl]ethanamine

> <PUBCHEM_IUPAC_SYSTEMATIC_NAME>
2-(1H-indol-3-yl)-N-[(1-methylpyrrol-3-yl)methyl]ethanamine

> <PUBCHEM_IUPAC_TRADITIONAL_NAME>
2-(1H-indol-3-yl)ethyl-[(1-methylpyrrol-3-yl)methyl]amine

> <PUBCHEM_IUPAC_INCHI>
InChI=1S/C16H19N3/c1-19-9-7-13(12-19)10-17-8-6-14-11-18-16-5-3-2-4-15(14)16/h2-5,7,9,11-12,17-18H,6,8,10H2,1H3

> <PUBCHEM_IUPAC_INCHIKEY>
LYIKXYVAAGUUQQ-UHFFFAOYSA-N

> <PUBCHEM_XLOGP3>
2.3

> <PUBCHEM_EXACT_MASS>
253.157898

> <PUBCHEM_MOLECULAR_FORMULA>
C16H19N3

> <PUBCHEM_MOLECULAR_WEIGHT>
253.34216

> <PUBCHEM_OPENEYE_CAN_SMILES>
CN1C=CC(=C1)CNCCC2=CNC3=CC=CC=C32

> <PUBCHEM_OPENEYE_ISO_SMILES>
CN1C=CC(=C1)CNCCC2=CNC3=CC=CC=C32

> <PUBCHEM_CACTVS_TPSA>
32.8

> <PUBCHEM_MONOISOTOPIC_WEIGHT>
253.157898

> <PUBCHEM_TOTAL_CHARGE>
0

> <PUBCHEM_HEAVY_ATOM_COUNT>
19

> <PUBCHEM_ATOM_DEF_STEREO_COUNT>
0

> <PUBCHEM_ATOM_UDEF_STEREO_COUNT>
0

> <PUBCHEM_BOND_DEF_STEREO_COUNT>
0

> <PUBCHEM_BOND_UDEF_STEREO_COUNT>
0

> <PUBCHEM_ISOTOPIC_ATOM_COUNT>
0

> <PUBCHEM_COMPONENT_COUNT>
1

> <PUBCHEM_CACTVS_TAUTO_COUNT>
1

> <PUBCHEM_COORDINATE_TYPE>
1
5
255

> <PUBCHEM_BONDANNOTATIONS>
11  14  8
11  15  8
12  16  8
13  18  8
15  17  8
16  18  8
2  10  8
2  8  8
3  14  8
3  17  8
5  10  8
5  7  8
7  12  8
7  8  8
8  13  8

$$$$
66399447
  -OEChem-11301218282D

 41 43  0     0  0  0  0  0  0999 V2000
    6.2781   -0.0811    0.0000 N   0  0  0  0  0  0  0  0  0  0  0  0
    7.5701    2.6936    0.0000 N   0  0  0  0  0  0  0  0  0  0  0  0
    4.6783   -3.7979    0.0000 N   0  0  0  0  0  0  0  0  0  0  0  0
    4.9889   -1.2379    0.0000 C   0  0  0  0  0  0  0  0  0  0  0  0
    4.6783   -2.1884    0.0000 C   0  0  0  0  0  0  0  0  0  0  0  0
    5.9674   -1.0317    0.0000 C   0  0  0  0  0  0  0  0  0  0  0  0
    3.7320   -2.4931    0.0000 C   0  0  0  0  0  0  0  0  0  0  0  0
    7.2566    0.1251    0.0000 C   0  0  0  0  0  0  0  0  0  0  0  0
    3.7320   -3.4931    0.0000 C   0  0  0  0  0  0  0  0  0  0  0  0
    7.5673    1.0756    0.0000 C   0  0  0  0  0  0  0  0  0  0  0  0
    5.2619   -2.9931    0.0000 C   0  0  0  0  0  0  0  0  0  0  0  0
    6.9809    1.8856    0.0000 C   0  0  0  0  0  0  0  0  0  0  0  0
    8.5189    1.3830    0.0000 C   0  0  0  0  0  0  0  0  0  0  0  0
    2.8660   -1.9931    0.0000 C   0  0  0  0  0  0  0  0  0  0  0  0
    8.5206    2.3830    0.0000 C   0  0  0  0  0  0  0  0  0  0  0  0
    7.2627    3.6452    0.0000 C   0  0  0  0  0  0  0  0  0  0  0  0
    2.8660   -3.9931    0.0000 C   0  0  0  0  0  0  0  0  0  0  0  0
    2.0000   -2.4931    0.0000 C   0  0  0  0  0  0  0  0  0  0  0  0
    2.0000   -3.4931    0.0000 C   0  0  0  0  0  0  0  0  0  0  0  0
    7.9331    4.3872    0.0000 C   0  0  0  0  0  0  0  0  0  0  0  0
    4.9684   -0.6182    0.0000 H   0  0  0  0  0  0  0  0  0  0  0  0
    4.3751   -1.1505    0.0000 H   0  0  0  0  0  0  0  0  0  0  0  0
    5.9880   -1.6513    0.0000 H   0  0  0  0  0  0  0  0  0  0  0  0
    6.5812   -1.1190    0.0000 H   0  0  0  0  0  0  0  0  0  0  0  0
    7.2772   -0.4946    0.0000 H   0  0  0  0  0  0  0  0  0  0  0  0
    7.8704    0.0377    0.0000 H   0  0  0  0  0  0  0  0  0  0  0  0
    5.8640    0.3803    0.0000 H   0  0  0  0  0  0  0  0  0  0  0  0
    5.8819   -2.9931    0.0000 H   0  0  0  0  0  0  0  0  0  0  0  0
    4.8709   -4.3872    0.0000 H   0  0  0  0  0  0  0  0  0  0  0  0
    6.3609    1.8867    0.0000 H   0  0  0  0  0  0  0  0  0  0  0  0
    9.0198    1.0177    0.0000 H   0  0  0  0  0  0  0  0  0  0  0  0
    2.8660   -1.3731    0.0000 H   0  0  0  0  0  0  0  0  0  0  0  0
    9.0228    2.7465    0.0000 H   0  0  0  0  0  0  0  0  0  0  0  0
    6.8818    4.1344    0.0000 H   0  0  0  0  0  0  0  0  0  0  0  0
    6.7148    3.3551    0.0000 H   0  0  0  0  0  0  0  0  0  0  0  0
    2.8660   -4.6131    0.0000 H   0  0  0  0  0  0  0  0  0  0  0  0
    1.4631   -2.1831    0.0000 H   0  0  0  0  0  0  0  0  0  0  0  0
    1.4631   -3.8031    0.0000 H   0  0  0  0  0  0  0  0  0  0  0  0
    8.3932    3.9715    0.0000 H   0  0  0  0  0  0  0  0  0  0  0  0
    8.3488    4.8472    0.0000 H   0  0  0  0  0  0  0  0  0  0  0  0
    7.4731    4.8028    0.0000 H   0  0  0  0  0  0  0  0  0  0  0  0
  1  6  1  0  0  0  0
  1  8  1  0  0  0  0
  1 27  1  0  0  0  0
  2 12  1  0  0  0  0
  2 15  1  0  0  0  0
  2 16  1  0  0  0  0
  3  9  1  0  0  0  0
  3 11  1  0  0  0  0
  3 29  1  0  0  0  0
  4  5  1  0  0  0  0
  4  6  1  0  0  0  0
  4 21  1  0  0  0  0
  4 22  1  0  0  0  0
  5  7  1  0  0  0  0
  5 11  2  0  0  0  0
  6 23  1  0  0  0  0
  6 24  1  0  0  0  0
  7  9  1  0  0  0  0
  7 14  2  0  0  0  0
  8 10  1  0  0  0  0
  8 25  1  0  0  0  0
  8 26  1  0  0  0  0
  9 17  2  0  0  0  0
 10 12  2  0  0  0  0
 10 13  1  0  0  0  0
 11 28  1  0  0  0  0
 12 30  1  0  0  0  0
 13 15  2  0  0  0  0
 13 31  1  0  0  0  0
 14 18  1  0  0  0  0
 14 32  1  0  0  0  0
 15 33  1  0  0  0  0
 16 20  1  0  0  0  0
 16 34  1  0  0  0  0
 16 35  1  0  0  0  0
 17 19  1  0  0  0  0
 17 36  1  0  0  0  0
 18 19  2  0  0  0  0
 18 37  1  0  0  0  0
 19 38  1  0  0  0  0
 20 39  1  0  0  0  0
 20 40  1  0  0  0  0
 20 41  1  0  0  0  0
M  END
> <PUBCHEM_COMPOUND_CID>
66399447

> <PUBCHEM_COMPOUND_CANONICALIZED>
1

> <PUBCHEM_CACTVS_COMPLEXITY>
294

> <PUBCHEM_CACTVS_HBOND_ACCEPTOR>
1

> <PUBCHEM_CACTVS_HBOND_DONOR>
2

> <PUBCHEM_CACTVS_ROTATABLE_BOND>
6

> <PUBCHEM_CACTVS_SUBSKEYS>
AAADceB7AAAAAAAAAAAAAAAAAAAAAWLAAAAwAAAAAAAAAFgB/AAAHAAQAAAADAjBHgQ+wPPNkACgAzRnRACCgCAxAiAI2aA4ZJgIIOLA0ZGEIAhgkADIyAcQgMAOgAAAAAACAAAAAAAAAAQAAAAAAAAAAA==

> <PUBCHEM_IUPAC_OPENEYE_NAME>
N-[(1-ethylpyrrol-3-yl)methyl]-2-(1H-indol-3-yl)ethanamine

> <PUBCHEM_IUPAC_CAS_NAME>
N-[(1-ethyl-3-pyrrolyl)methyl]-2-(1H-indol-3-yl)ethanamine

> <PUBCHEM_IUPAC_NAME>
N-[(1-ethylpyrrol-3-yl)methyl]-2-(1H-indol-3-yl)ethanamine

> <PUBCHEM_IUPAC_SYSTEMATIC_NAME>
N-[(1-ethylpyrrol-3-yl)methyl]-2-(1H-indol-3-yl)ethanamine

> <PUBCHEM_IUPAC_TRADITIONAL_NAME>
(1-ethylpyrrol-3-yl)methyl-[2-(1H-indol-3-yl)ethyl]amine

> <PUBCHEM_IUPAC_INCHI>
InChI=1S/C17H21N3/c1-2-20-10-8-14(13-20)11-18-9-7-15-12-19-17-6-4-3-5-16(15)17/h3-6,8,10,12-13,18-19H,2,7,9,11H2,1H3

> <PUBCHEM_IUPAC_INCHIKEY>
ZDKFURVVVIARLO-UHFFFAOYSA-N

> <PUBCHEM_XLOGP3>
2.6

> <PUBCHEM_EXACT_MASS>
267.173548

> <PUBCHEM_MOLECULAR_FORMULA>
C17H21N3

> <PUBCHEM_MOLECULAR_WEIGHT>
267.36874

> <PUBCHEM_OPENEYE_CAN_SMILES>
CCN1C=CC(=C1)CNCCC2=CNC3=CC=CC=C32

> <PUBCHEM_OPENEYE_ISO_SMILES>
CCN1C=CC(=C1)CNCCC2=CNC3=CC=CC=C32

> <PUBCHEM_CACTVS_TPSA>
32.8

> <PUBCHEM_MONOISOTOPIC_WEIGHT>
267.173548

> <PUBCHEM_TOTAL_CHARGE>
0

> <PUBCHEM_HEAVY_ATOM_COUNT>
20

> <PUBCHEM_ATOM_DEF_STEREO_COUNT>
0

> <PUBCHEM_ATOM_UDEF_STEREO_COUNT>
0

> <PUBCHEM_BOND_DEF_STEREO_COUNT>
0

> <PUBCHEM_BOND_UDEF_STEREO_COUNT>
0

> <PUBCHEM_ISOTOPIC_ATOM_COUNT>
0

> <PUBCHEM_COMPONENT_COUNT>
1

> <PUBCHEM_CACTVS_TAUTO_COUNT>
1

> <PUBCHEM_COORDINATE_TYPE>
1
5
255

> <PUBCHEM_BONDANNOTATIONS>
10  12  8
10  13  8
13  15  8
14  18  8
17  19  8
18  19  8
2  12  8
2  15  8
3  11  8
3  9  8
5  11  8
5  7  8
7  14  8
7  9  8
9  17  8

$$$$
66399448
  -OEChem-11301218282D

 44 46  0     0  0  0  0  0  0999 V2000
    7.5701    2.2178    0.0000 N   0  0  0  0  0  0  0  0  0  0  0  0
    6.2781   -0.5569    0.0000 N   0  0  0  0  0  0  0  0  0  0  0  0
    4.6783   -4.2737    0.0000 N   0  0  0  0  0  0  0  0  0  0  0  0
    4.9889   -1.7137    0.0000 C   0  0  0  0  0  0  0  0  0  0  0  0
    4.6783   -2.6642    0.0000 C   0  0  0  0  0  0  0  0  0  0  0  0
    5.9674   -1.5075    0.0000 C   0  0  0  0  0  0  0  0  0  0  0  0
    3.7320   -2.9689    0.0000 C   0  0  0  0  0  0  0  0  0  0  0  0
    7.2566   -0.3507    0.0000 C   0  0  0  0  0  0  0  0  0  0  0  0
    7.5673    0.5998    0.0000 C   0  0  0  0  0  0  0  0  0  0  0  0
    3.7320   -3.9689    0.0000 C   0  0  0  0  0  0  0  0  0  0  0  0
    7.2627    3.1694    0.0000 C   0  0  0  0  0  0  0  0  0  0  0  0
    6.9809    1.4098    0.0000 C   0  0  0  0  0  0  0  0  0  0  0  0
    5.2619   -3.4689    0.0000 C   0  0  0  0  0  0  0  0  0  0  0  0
    8.5189    0.9072    0.0000 C   0  0  0  0  0  0  0  0  0  0  0  0
    8.5206    1.9072    0.0000 C   0  0  0  0  0  0  0  0  0  0  0  0
    7.9331    3.9114    0.0000 C   0  0  0  0  0  0  0  0  0  0  0  0
    2.8660   -2.4689    0.0000 C   0  0  0  0  0  0  0  0  0  0  0  0
    2.8660   -4.4689    0.0000 C   0  0  0  0  0  0  0  0  0  0  0  0
    2.0000   -2.9689    0.0000 C   0  0  0  0  0  0  0  0  0  0  0  0
    2.0000   -3.9689    0.0000 C   0  0  0  0  0  0  0  0  0  0  0  0
    7.6257    4.8630    0.0000 C   0  0  0  0  0  0  0  0  0  0  0  0
    4.9684   -1.0940    0.0000 H   0  0  0  0  0  0  0  0  0  0  0  0
    4.3751   -1.6263    0.0000 H   0  0  0  0  0  0  0  0  0  0  0  0
    5.9880   -2.1271    0.0000 H   0  0  0  0  0  0  0  0  0  0  0  0
    6.5812   -1.5948    0.0000 H   0  0  0  0  0  0  0  0  0  0  0  0
    7.2772   -0.9704    0.0000 H   0  0  0  0  0  0  0  0  0  0  0  0
    7.8704   -0.4381    0.0000 H   0  0  0  0  0  0  0  0  0  0  0  0
    5.8640   -0.0955    0.0000 H   0  0  0  0  0  0  0  0  0  0  0  0
    6.8818    3.6586    0.0000 H   0  0  0  0  0  0  0  0  0  0  0  0
    6.7148    2.8793    0.0000 H   0  0  0  0  0  0  0  0  0  0  0  0
    6.3609    1.4109    0.0000 H   0  0  0  0  0  0  0  0  0  0  0  0
    5.8819   -3.4689    0.0000 H   0  0  0  0  0  0  0  0  0  0  0  0
    9.0198    0.5419    0.0000 H   0  0  0  0  0  0  0  0  0  0  0  0
    9.0228    2.2707    0.0000 H   0  0  0  0  0  0  0  0  0  0  0  0
    4.8709   -4.8630    0.0000 H   0  0  0  0  0  0  0  0  0  0  0  0
    8.3140    3.4222    0.0000 H   0  0  0  0  0  0  0  0  0  0  0  0
    8.4810    4.2015    0.0000 H   0  0  0  0  0  0  0  0  0  0  0  0
    2.8660   -1.8489    0.0000 H   0  0  0  0  0  0  0  0  0  0  0  0
    2.8660   -5.0889    0.0000 H   0  0  0  0  0  0  0  0  0  0  0  0
    1.4631   -2.6589    0.0000 H   0  0  0  0  0  0  0  0  0  0  0  0
    1.4631   -4.2789    0.0000 H   0  0  0  0  0  0  0  0  0  0  0  0
    8.2157    5.0536    0.0000 H   0  0  0  0  0  0  0  0  0  0  0  0
    7.4352    5.4530    0.0000 H   0  0  0  0  0  0  0  0  0  0  0  0
    7.0358    4.6724    0.0000 H   0  0  0  0  0  0  0  0  0  0  0  0
  1 11  1  0  0  0  0
  1 12  1  0  0  0  0
  1 15  1  0  0  0  0
  2  6  1  0  0  0  0
  2  8  1  0  0  0  0
  2 28  1  0  0  0  0
  3 10  1  0  0  0  0
  3 13  1  0  0  0  0
  3 35  1  0  0  0  0
  4  5  1  0  0  0  0
  4  6  1  0  0  0  0
  4 22  1  0  0  0  0
  4 23  1  0  0  0  0
  5  7  1  0  0  0  0
  5 13  2  0  0  0  0
  6 24  1  0  0  0  0
  6 25  1  0  0  0  0
  7 10  1  0  0  0  0
  7 17  2  0  0  0  0
  8  9  1  0  0  0  0
  8 26  1  0  0  0  0
  8 27  1  0  0  0  0
  9 12  2  0  0  0  0
  9 14  1  0  0  0  0
 10 18  2  0  0  0  0
 11 16  1  0  0  0  0
 11 29  1  0  0  0  0
 11 30  1  0  0  0  0
 12 31  1  0  0  0  0
 13 32  1  0  0  0  0
 14 15  2  0  0  0  0
 14 33  1  0  0  0  0
 15 34  1  0  0  0  0
 16 21  1  0  0  0  0
 16 36  1  0  0  0  0
 16 37  1  0  0  0  0
 17 19  1  0  0  0  0
 17 38  1  0  0  0  0
 18 20  1  0  0  0  0
 18 39  1  0  0  0  0
 19 20  2  0  0  0  0
 19 40  1  0  0  0  0
 20 41  1  0  0  0  0
 21 42  1  0  0  0  0
 21 43  1  0  0  0  0
 21 44  1  0  0  0  0
M  END
> <PUBCHEM_COMPOUND_CID>
66399448

> <PUBCHEM_COMPOUND_CANONICALIZED>
1

> <PUBCHEM_CACTVS_COMPLEXITY>
307

> <PUBCHEM_CACTVS_HBOND_ACCEPTOR>
1

> <PUBCHEM_CACTVS_HBOND_DONOR>
2

> <PUBCHEM_CACTVS_ROTATABLE_BOND>
7

> <PUBCHEM_CACTVS_SUBSKEYS>
AAADceB7AAAAAAAAAAAAAAAAAAAAAWLAAAAwAAAAAAAAAFgB/AAAHAAQAAAADAjBHgQ+wPPNkACgAzRnRACCgCAxAiAI2aA4ZJgIIOLA0ZGEIAhgkADIyAcQgMAOgAAAAAACAAAAAAAAAAQAAAAAAAAAAA==

> <PUBCHEM_IUPAC_OPENEYE_NAME>
2-(1H-indol-3-yl)-N-[(1-propylpyrrol-3-yl)methyl]ethanamine

> <PUBCHEM_IUPAC_CAS_NAME>
2-(1H-indol-3-yl)-N-[(1-propyl-3-pyrrolyl)methyl]ethanamine

> <PUBCHEM_IUPAC_NAME>
2-(1H-indol-3-yl)-N-[(1-propylpyrrol-3-yl)methyl]ethanamine

> <PUBCHEM_IUPAC_SYSTEMATIC_NAME>
2-(1H-indol-3-yl)-N-[(1-propylpyrrol-3-yl)methyl]ethanamine

> <PUBCHEM_IUPAC_TRADITIONAL_NAME>
2-(1H-indol-3-yl)ethyl-[(1-propylpyrrol-3-yl)methyl]amine

> <PUBCHEM_IUPAC_INCHI>
InChI=1S/C18H23N3/c1-2-10-21-11-8-15(14-21)12-19-9-7-16-13-20-18-6-4-3-5-17(16)18/h3-6,8,11,13-14,19-20H,2,7,9-10,12H2,1H3

> <PUBCHEM_IUPAC_INCHIKEY>
SGUCZQZZMVJISD-UHFFFAOYSA-N

> <PUBCHEM_XLOGP3>
3.1

> <PUBCHEM_EXACT_MASS>
281.189198

> <PUBCHEM_MOLECULAR_FORMULA>
C18H23N3

> <PUBCHEM_MOLECULAR_WEIGHT>
281.39532

> <PUBCHEM_OPENEYE_CAN_SMILES>
CCCN1C=CC(=C1)CNCCC2=CNC3=CC=CC=C32

> <PUBCHEM_OPENEYE_ISO_SMILES>
CCCN1C=CC(=C1)CNCCC2=CNC3=CC=CC=C32

> <PUBCHEM_CACTVS_TPSA>
32.8

> <PUBCHEM_MONOISOTOPIC_WEIGHT>
281.189198

> <PUBCHEM_TOTAL_CHARGE>
0

> <PUBCHEM_HEAVY_ATOM_COUNT>
21

> <PUBCHEM_ATOM_DEF_STEREO_COUNT>
0

> <PUBCHEM_ATOM_UDEF_STEREO_COUNT>
0

> <PUBCHEM_BOND_DEF_STEREO_COUNT>
0

> <PUBCHEM_BOND_UDEF_STEREO_COUNT>
0

> <PUBCHEM_ISOTOPIC_ATOM_COUNT>
0

> <PUBCHEM_COMPONENT_COUNT>
1

> <PUBCHEM_CACTVS_TAUTO_COUNT>
1

> <PUBCHEM_COORDINATE_TYPE>
1
5
255

> <PUBCHEM_BONDANNOTATIONS>
1  12  8
1  15  8
10  18  8
14  15  8
17  19  8
18  20  8
19  20  8
3  10  8
3  13  8
5  13  8
5  7  8
7  10  8
7  17  8
9  12  8
9  14  8

$$$$
