9715783
  -OEChem-11301217072D

 41 42  0     0  0  0  0  0  0999 V2000
    4.5981    3.8450    0.0000 S   0  0  0  0  0  0  0  0  0  0  0  0
    9.7942   -5.1550    0.0000 F   0  0  0  0  0  0  0  0  0  0  0  0
    8.0622   -5.1550    0.0000 F   0  0  0  0  0  0  0  0  0  0  0  0
    5.5981    3.8450    0.0000 O   0  0  0  0  0  0  0  0  0  0  0  0
    3.5981    3.8450    0.0000 O   0  0  0  0  0  0  0  0  0  0  0  0
    8.9282   -3.6550    0.0000 O   0  0  0  0  0  0  0  0  0  0  0  0
    2.0000    1.3450    0.0000 O   0  5  0  0  0  0  0  0  0  0  0  0
    2.8660   -0.1550    0.0000 O   0  0  0  0  0  0  0  0  0  0  0  0
    4.5981   -0.1550    0.0000 N   0  0  0  0  0  0  0  0  0  0  0  0
    5.4641   -0.6550    0.0000 N   0  0  0  0  0  0  0  0  0  0  0  0
    2.8660    0.8450    0.0000 N   0  3  0  0  0  0  0  0  0  0  0  0
    4.5981    4.8450    0.0000 N   0  0  0  0  0  0  0  0  0  0  0  0
    4.5981    2.8450    0.0000 C   0  0  0  0  0  0  0  0  0  0  0  0
    4.5981    0.8450    0.0000 C   0  0  0  0  0  0  0  0  0  0  0  0
    3.7320    1.3450    0.0000 C   0  0  0  0  0  0  0  0  0  0  0  0
    3.7320    2.3450    0.0000 C   0  0  0  0  0  0  0  0  0  0  0  0
    5.4641    2.3450    0.0000 C   0  0  0  0  0  0  0  0  0  0  0  0
    5.4641    1.3450    0.0000 C   0  0  0  0  0  0  0  0  0  0  0  0
    6.3301   -2.1550    0.0000 C   0  0  0  0  0  0  0  0  0  0  0  0
    5.4641   -1.6550    0.0000 C   0  0  0  0  0  0  0  0  0  0  0  0
    6.3301   -3.1550    0.0000 C   0  0  0  0  0  0  0  0  0  0  0  0
    7.1962   -1.6550    0.0000 C   0  0  0  0  0  0  0  0  0  0  0  0
    4.5981   -2.1550    0.0000 C   0  0  0  0  0  0  0  0  0  0  0  0
    8.0622   -3.1550    0.0000 C   0  0  0  0  0  0  0  0  0  0  0  0
    7.1962   -3.6550    0.0000 C   0  0  0  0  0  0  0  0  0  0  0  0
    8.0622   -2.1550    0.0000 C   0  0  0  0  0  0  0  0  0  0  0  0
    8.9282   -4.6550    0.0000 C   0  0  0  0  0  0  0  0  0  0  0  0
    3.1951    2.6550    0.0000 H   0  0  0  0  0  0  0  0  0  0  0  0
    6.0010    2.6550    0.0000 H   0  0  0  0  0  0  0  0  0  0  0  0
    6.0010    1.0350    0.0000 H   0  0  0  0  0  0  0  0  0  0  0  0
    4.0611   -0.4650    0.0000 H   0  0  0  0  0  0  0  0  0  0  0  0
    5.7932   -3.4650    0.0000 H   0  0  0  0  0  0  0  0  0  0  0  0
    7.1962   -1.0350    0.0000 H   0  0  0  0  0  0  0  0  0  0  0  0
    4.2881   -1.6181    0.0000 H   0  0  0  0  0  0  0  0  0  0  0  0
    4.0611   -2.4650    0.0000 H   0  0  0  0  0  0  0  0  0  0  0  0
    4.9081   -2.6919    0.0000 H   0  0  0  0  0  0  0  0  0  0  0  0
    7.1962   -4.2750    0.0000 H   0  0  0  0  0  0  0  0  0  0  0  0
    8.5991   -1.8450    0.0000 H   0  0  0  0  0  0  0  0  0  0  0  0
    5.1350    5.1550    0.0000 H   0  0  0  0  0  0  0  0  0  0  0  0
    4.0611    5.1550    0.0000 H   0  0  0  0  0  0  0  0  0  0  0  0
    9.4651   -4.3450    0.0000 H   0  0  0  0  0  0  0  0  0  0  0  0
  1  4  2  0  0  0  0
  1  5  2  0  0  0  0
  1 12  1  0  0  0  0
  1 13  1  0  0  0  0
  2 27  1  0  0  0  0
  3 27  1  0  0  0  0
  6 24  1  0  0  0  0
  6 27  1  0  0  0  0
  7 11  1  0  0  0  0
  8 11  2  0  0  0  0
  9 10  1  0  0  0  0
  9 14  1  0  0  0  0
  9 31  1  0  0  0  0
 10 20  2  0  0  0  0
 11 15  1  0  0  0  0
 12 39  1  0  0  0  0
 12 40  1  0  0  0  0
 13 16  2  0  0  0  0
 13 17  1  0  0  0  0
 14 15  2  0  0  0  0
 14 18  1  0  0  0  0
 15 16  1  0  0  0  0
 16 28  1  0  0  0  0
 17 18  2  0  0  0  0
 17 29  1  0  0  0  0
 18 30  1  0  0  0  0
 19 20  1  0  0  0  0
 19 21  2  0  0  0  0
 19 22  1  0  0  0  0
 20 23  1  0  0  0  0
 21 25  1  0  0  0  0
 21 32  1  0  0  0  0
 22 26  2  0  0  0  0
 22 33  1  0  0  0  0
 23 34  1  0  0  0  0
 23 35  1  0  0  0  0
 23 36  1  0  0  0  0
 24 25  2  0  0  0  0
 24 26  1  0  0  0  0
 25 37  1  0  0  0  0
 26 38  1  0  0  0  0
 27 41  1  0  0  0  0
M  CHG  2   7  -1  11   1
M  END
> <PUBCHEM_COMPOUND_CID>
9715783

> <PUBCHEM_COMPOUND_CANONICALIZED>
1

> <PUBCHEM_CACTVS_COMPLEXITY>
642

> <PUBCHEM_CACTVS_HBOND_ACCEPTOR>
10

> <PUBCHEM_CACTVS_HBOND_DONOR>
2

> <PUBCHEM_CACTVS_ROTATABLE_BOND>
6

> <PUBCHEM_CACTVS_SUBSKEYS>
AAADccBzuYBAAAAAAAAAAAAAAAAAAAAAAAAwYAAAAAAAAAABQAAAHwQcQAAADAyB2BIyx4ByRAKhAyRiQ3DSDBAgIgA4iBg2fJoMZqKEsZuAMCRk2JEI6AeQwIAOIAQAACAAACBACAAAQAAAQAAAAAAAAA==

> <PUBCHEM_IUPAC_OPENEYE_NAME>
4-[(2E)-2-[1-[4-(difluoromethoxy)phenyl]ethylidene]hydrazino]-3-nitro-benzenesulfonamide

> <PUBCHEM_IUPAC_CAS_NAME>
4-[(2E)-2-[1-[4-(difluoromethoxy)phenyl]ethylidene]hydrazinyl]-3-nitrobenzenesulfonamide

> <PUBCHEM_IUPAC_NAME>
4-[(2E)-2-[1-[4-(difluoromethoxy)phenyl]ethylidene]hydrazinyl]-3-nitrobenzenesulfonamide

> <PUBCHEM_IUPAC_SYSTEMATIC_NAME>
4-[(2E)-2-[1-[4-[bis(fluoranyl)methoxy]phenyl]ethylidene]hydrazinyl]-3-nitro-benzenesulfonamide

> <PUBCHEM_IUPAC_TRADITIONAL_NAME>
4-[(N'E)-N'-[1-[4-(difluoromethoxy)phenyl]ethylidene]hydrazino]-3-nitro-benzenesulfonamide

> <PUBCHEM_IUPAC_INCHI>
InChI=1S/C15H14F2N4O5S/c1-9(10-2-4-11(5-3-10)26-15(16)17)19-20-13-7-6-12(27(18,24)25)8-14(13)21(22)23/h2-8,15,20H,1H3,(H2,18,24,25)/b19-9+

> <PUBCHEM_IUPAC_INCHIKEY>
BDUMNMJYSZDUIO-DJKKODMXSA-N

> <PUBCHEM_XLOGP3>
4.4

> <PUBCHEM_EXACT_MASS>
400.065297

> <PUBCHEM_MOLECULAR_FORMULA>
C15H14F2N4O5S

> <PUBCHEM_MOLECULAR_WEIGHT>
400.357266

> <PUBCHEM_OPENEYE_CAN_SMILES>
CC(=NNC1=C(C=C(C=C1)S(=O)(=O)N)[N+](=O)[O-])C2=CC=C(C=C2)OC(F)F

> <PUBCHEM_OPENEYE_ISO_SMILES>
C/C(=N\NC1=C(C=C(C=C1)S(=O)(=O)N)[N+](=O)[O-])/C2=CC=C(C=C2)OC(F)F

> <PUBCHEM_CACTVS_TPSA>
148

> <PUBCHEM_MONOISOTOPIC_WEIGHT>
400.065297

> <PUBCHEM_TOTAL_CHARGE>
0

> <PUBCHEM_HEAVY_ATOM_COUNT>
27

> <PUBCHEM_ATOM_DEF_STEREO_COUNT>
0

> <PUBCHEM_ATOM_UDEF_STEREO_COUNT>
0

> <PUBCHEM_BOND_DEF_STEREO_COUNT>
1

> <PUBCHEM_BOND_UDEF_STEREO_COUNT>
0

> <PUBCHEM_ISOTOPIC_ATOM_COUNT>
0

> <PUBCHEM_COMPONENT_COUNT>
1

> <PUBCHEM_CACTVS_TAUTO_COUNT>
1

> <PUBCHEM_COORDINATE_TYPE>
1
5
255

> <PUBCHEM_BONDANNOTATIONS>
13  16  8
13  17  8
14  15  8
14  18  8
15  16  8
17  18  8
19  21  8
19  22  8
21  25  8
22  26  8
24  25  8
24  26  8

$$$$
