36412768
  -OEChem-11301217462D

 51 53  0     0  0  0  0  0  0999 V2000
    5.6103    1.0591    0.0000 O   0  0  0  0  0  0  0  0  0  0  0  0
    7.2566    0.5210    0.0000 N   0  0  0  0  0  0  0  0  0  0  0  0
    4.6783   -3.4019    0.0000 N   0  0  0  0  0  0  0  0  0  0  0  0
    9.8349    2.8345    0.0000 C   0  0  0  0  0  0  0  0  0  0  0  0
   10.5028    2.0902    0.0000 C   0  0  0  0  0  0  0  0  0  0  0  0
   10.1456    3.7850    0.0000 C   0  0  0  0  0  0  0  0  0  0  0  0
   11.1241    3.9912    0.0000 C   0  0  0  0  0  0  0  0  0  0  0  0
   11.4813    2.2964    0.0000 C   0  0  0  0  0  0  0  0  0  0  0  0
    8.8564    2.6283    0.0000 C   0  0  0  0  0  0  0  0  0  0  0  0
   11.7920    3.2469    0.0000 C   0  0  0  0  0  0  0  0  0  0  0  0
    8.5458    1.6778    0.0000 C   0  0  0  0  0  0  0  0  0  0  0  0
    7.5673    1.4715    0.0000 C   0  0  0  0  0  0  0  0  0  0  0  0
    6.2781    0.3148    0.0000 C   0  0  0  0  0  0  0  0  0  0  0  0
    5.9674   -0.6357    0.0000 C   0  0  0  0  0  0  0  0  0  0  0  0
    4.9889   -0.8419    0.0000 C   0  0  0  0  0  0  0  0  0  0  0  0
    4.6783   -1.7924    0.0000 C   0  0  0  0  0  0  0  0  0  0  0  0
    3.7320   -2.0972    0.0000 C   0  0  0  0  0  0  0  0  0  0  0  0
    3.7320   -3.0972    0.0000 C   0  0  0  0  0  0  0  0  0  0  0  0
    5.2619   -2.5972    0.0000 C   0  0  0  0  0  0  0  0  0  0  0  0
    2.8660   -1.5972    0.0000 C   0  0  0  0  0  0  0  0  0  0  0  0
    2.8660   -3.5972    0.0000 C   0  0  0  0  0  0  0  0  0  0  0  0
    2.0000   -2.0972    0.0000 C   0  0  0  0  0  0  0  0  0  0  0  0
    2.0000   -3.0972    0.0000 C   0  0  0  0  0  0  0  0  0  0  0  0
    9.6423    2.2452    0.0000 H   0  0  0  0  0  0  0  0  0  0  0  0
   10.1250    4.4047    0.0000 H   0  0  0  0  0  0  0  0  0  0  0  0
    9.5318    3.8724    0.0000 H   0  0  0  0  0  0  0  0  0  0  0  0
    9.9764    1.7626    0.0000 H   0  0  0  0  0  0  0  0  0  0  0  0
   10.7340    1.5150    0.0000 H   0  0  0  0  0  0  0  0  0  0  0  0
   11.6505    4.3189    0.0000 H   0  0  0  0  0  0  0  0  0  0  0  0
   10.8929    4.5665    0.0000 H   0  0  0  0  0  0  0  0  0  0  0  0
   11.5019    1.6768    0.0000 H   0  0  0  0  0  0  0  0  0  0  0  0
   12.0951    2.2091    0.0000 H   0  0  0  0  0  0  0  0  0  0  0  0
    8.8359    3.2479    0.0000 H   0  0  0  0  0  0  0  0  0  0  0  0
    8.2426    2.7156    0.0000 H   0  0  0  0  0  0  0  0  0  0  0  0
   12.3389    2.9549    0.0000 H   0  0  0  0  0  0  0  0  0  0  0  0
   12.1745    3.7348    0.0000 H   0  0  0  0  0  0  0  0  0  0  0  0
    8.5663    1.0581    0.0000 H   0  0  0  0  0  0  0  0  0  0  0  0
    9.1596    1.5904    0.0000 H   0  0  0  0  0  0  0  0  0  0  0  0
    7.5467    2.0912    0.0000 H   0  0  0  0  0  0  0  0  0  0  0  0
    6.9534    1.5589    0.0000 H   0  0  0  0  0  0  0  0  0  0  0  0
    7.6707    0.0596    0.0000 H   0  0  0  0  0  0  0  0  0  0  0  0
    5.9880   -1.2554    0.0000 H   0  0  0  0  0  0  0  0  0  0  0  0
    6.5812   -0.7231    0.0000 H   0  0  0  0  0  0  0  0  0  0  0  0
    4.9684   -0.2223    0.0000 H   0  0  0  0  0  0  0  0  0  0  0  0
    4.3751   -0.7546    0.0000 H   0  0  0  0  0  0  0  0  0  0  0  0
    5.8819   -2.5972    0.0000 H   0  0  0  0  0  0  0  0  0  0  0  0
    4.8709   -3.9912    0.0000 H   0  0  0  0  0  0  0  0  0  0  0  0
    2.8660   -0.9772    0.0000 H   0  0  0  0  0  0  0  0  0  0  0  0
    2.8660   -4.2172    0.0000 H   0  0  0  0  0  0  0  0  0  0  0  0
    1.4631   -1.7872    0.0000 H   0  0  0  0  0  0  0  0  0  0  0  0
    1.4631   -3.4072    0.0000 H   0  0  0  0  0  0  0  0  0  0  0  0
  1 13  2  0  0  0  0
  2 12  1  0  0  0  0
  2 13  1  0  0  0  0
  2 41  1  0  0  0  0
  3 18  1  0  0  0  0
  3 19  1  0  0  0  0
  3 47  1  0  0  0  0
  4  5  1  0  0  0  0
  4  6  1  0  0  0  0
  4  9  1  0  0  0  0
  4 24  1  0  0  0  0
  5  8  1  0  0  0  0
  5 27  1  0  0  0  0
  5 28  1  0  0  0  0
  6  7  1  0  0  0  0
  6 25  1  0  0  0  0
  6 26  1  0  0  0  0
  7 10  1  0  0  0  0
  7 29  1  0  0  0  0
  7 30  1  0  0  0  0
  8 10  1  0  0  0  0
  8 31  1  0  0  0  0
  8 32  1  0  0  0  0
  9 11  1  0  0  0  0
  9 33  1  0  0  0  0
  9 34  1  0  0  0  0
 10 35  1  0  0  0  0
 10 36  1  0  0  0  0
 11 12  1  0  0  0  0
 11 37  1  0  0  0  0
 11 38  1  0  0  0  0
 12 39  1  0  0  0  0
 12 40  1  0  0  0  0
 13 14  1  0  0  0  0
 14 15  1  0  0  0  0
 14 42  1  0  0  0  0
 14 43  1  0  0  0  0
 15 16  1  0  0  0  0
 15 44  1  0  0  0  0
 15 45  1  0  0  0  0
 16 17  1  0  0  0  0
 16 19  2  0  0  0  0
 17 18  1  0  0  0  0
 17 20  2  0  0  0  0
 18 21  2  0  0  0  0
 19 46  1  0  0  0  0
 20 22  1  0  0  0  0
 20 48  1  0  0  0  0
 21 23  1  0  0  0  0
 21 49  1  0  0  0  0
 22 23  2  0  0  0  0
 22 50  1  0  0  0  0
 23 51  1  0  0  0  0
M  END
> <PUBCHEM_COMPOUND_CID>
36412768

> <PUBCHEM_COMPOUND_CANONICALIZED>
1

> <PUBCHEM_CACTVS_COMPLEXITY>
365

> <PUBCHEM_CACTVS_HBOND_ACCEPTOR>
1

> <PUBCHEM_CACTVS_HBOND_DONOR>
2

> <PUBCHEM_CACTVS_ROTATABLE_BOND>
7

> <PUBCHEM_CACTVS_SUBSKEYS>
AAADceB7IAAAAAAAAAAAAAAAAAAAAWAAAAAwYAAAAAAAAFgB8AAAHgAQAAAADQjBngQ8wPLJkACoAzV3VACCgCAxAiAI2aE4ZJgIIPLAkZGEIAhglgDIyAcYicCOgAAAAAACAAAAAAAAAAQAAAAAAAAAAA==

> <PUBCHEM_IUPAC_OPENEYE_NAME>
N-(3-cyclohexylpropyl)-3-(1H-indol-3-yl)propanamide

> <PUBCHEM_IUPAC_CAS_NAME>
N-(3-cyclohexylpropyl)-3-(1H-indol-3-yl)propanamide

> <PUBCHEM_IUPAC_NAME>
N-(3-cyclohexylpropyl)-3-(1H-indol-3-yl)propanamide

> <PUBCHEM_IUPAC_SYSTEMATIC_NAME>
N-(3-cyclohexylpropyl)-3-(1H-indol-3-yl)propanamide

> <PUBCHEM_IUPAC_TRADITIONAL_NAME>
N-(3-cyclohexylpropyl)-3-(1H-indol-3-yl)propionamide

> <PUBCHEM_IUPAC_INCHI>
InChI=1S/C20H28N2O/c23-20(21-14-6-9-16-7-2-1-3-8-16)13-12-17-15-22-19-11-5-4-10-18(17)19/h4-5,10-11,15-16,22H,1-3,6-9,12-14H2,(H,21,23)

> <PUBCHEM_IUPAC_INCHIKEY>
UAWVTEIETUAILQ-UHFFFAOYSA-N

> <PUBCHEM_XLOGP3>
5

> <PUBCHEM_EXACT_MASS>
312.220164

> <PUBCHEM_MOLECULAR_FORMULA>
C20H28N2O

> <PUBCHEM_MOLECULAR_WEIGHT>
312.44912

> <PUBCHEM_OPENEYE_CAN_SMILES>
C1CCC(CC1)CCCNC(=O)CCC2=CNC3=CC=CC=C32

> <PUBCHEM_OPENEYE_ISO_SMILES>
C1CCC(CC1)CCCNC(=O)CCC2=CNC3=CC=CC=C32

> <PUBCHEM_CACTVS_TPSA>
44.9

> <PUBCHEM_MONOISOTOPIC_WEIGHT>
312.220164

> <PUBCHEM_TOTAL_CHARGE>
0

> <PUBCHEM_HEAVY_ATOM_COUNT>
23

> <PUBCHEM_ATOM_DEF_STEREO_COUNT>
0

> <PUBCHEM_ATOM_UDEF_STEREO_COUNT>
0

> <PUBCHEM_BOND_DEF_STEREO_COUNT>
0

> <PUBCHEM_BOND_UDEF_STEREO_COUNT>
0

> <PUBCHEM_ISOTOPIC_ATOM_COUNT>
0

> <PUBCHEM_COMPONENT_COUNT>
1

> <PUBCHEM_CACTVS_TAUTO_COUNT>
2

> <PUBCHEM_COORDINATE_TYPE>
1
5
255

> <PUBCHEM_BONDANNOTATIONS>
16  17  8
16  19  8
17  18  8
17  20  8
18  21  8
20  22  8
21  23  8
22  23  8
3  18  8
3  19  8

$$$$
36421475
  -OEChem-11301217462D

 52 55  0     0  0  0  0  0  0999 V2000
    5.6103    1.0994    0.0000 O   0  0  0  0  0  0  0  0  0  0  0  0
    7.2566    0.5613    0.0000 N   0  0  0  0  0  0  0  0  0  0  0  0
    4.6783   -3.3616    0.0000 N   0  0  0  0  0  0  0  0  0  0  0  0
    7.5673    1.5118    0.0000 C   0  0  0  0  0  0  0  0  0  0  0  0
    4.9889   -0.8016    0.0000 C   0  0  0  0  0  0  0  0  0  0  0  0
    5.9674   -0.5954    0.0000 C   0  0  0  0  0  0  0  0  0  0  0  0
    4.6783   -1.7522    0.0000 C   0  0  0  0  0  0  0  0  0  0  0  0
    6.2781    0.3551    0.0000 C   0  0  0  0  0  0  0  0  0  0  0  0
    8.5458    1.7180    0.0000 C   0  0  0  0  0  0  0  0  0  0  0  0
    6.8994    2.2561    0.0000 C   0  0  0  0  0  0  0  0  0  0  0  0
    3.7320   -2.0569    0.0000 C   0  0  0  0  0  0  0  0  0  0  0  0
    3.7320   -3.0569    0.0000 C   0  0  0  0  0  0  0  0  0  0  0  0
    5.2619   -2.5569    0.0000 C   0  0  0  0  0  0  0  0  0  0  0  0
    7.9244   -0.1830    0.0000 C   0  0  0  0  0  0  0  0  0  0  0  0
    9.2136    0.9737    0.0000 C   0  0  0  0  0  0  0  0  0  0  0  0
    7.2101    3.2066    0.0000 C   0  0  0  0  0  0  0  0  0  0  0  0
    8.8564    2.6686    0.0000 C   0  0  0  0  0  0  0  0  0  0  0  0
    5.9209    2.0499    0.0000 C   0  0  0  0  0  0  0  0  0  0  0  0
    2.8660   -1.5569    0.0000 C   0  0  0  0  0  0  0  0  0  0  0  0
    2.8660   -3.5569    0.0000 C   0  0  0  0  0  0  0  0  0  0  0  0
    2.0000   -2.0569    0.0000 C   0  0  0  0  0  0  0  0  0  0  0  0
    2.0000   -3.0569    0.0000 C   0  0  0  0  0  0  0  0  0  0  0  0
   10.1921    1.1800    0.0000 C   0  0  0  0  0  0  0  0  0  0  0  0
    6.5422    3.9510    0.0000 C   0  0  0  0  0  0  0  0  0  0  0  0
    9.8349    2.8748    0.0000 C   0  0  0  0  0  0  0  0  0  0  0  0
    5.2531    2.7942    0.0000 C   0  0  0  0  0  0  0  0  0  0  0  0
    5.5637    3.7447    0.0000 C   0  0  0  0  0  0  0  0  0  0  0  0
   10.5028    2.1305    0.0000 C   0  0  0  0  0  0  0  0  0  0  0  0
    6.9606    1.3840    0.0000 H   0  0  0  0  0  0  0  0  0  0  0  0
    4.9684   -0.1820    0.0000 H   0  0  0  0  0  0  0  0  0  0  0  0
    4.3751   -0.7143    0.0000 H   0  0  0  0  0  0  0  0  0  0  0  0
    5.9880   -1.2151    0.0000 H   0  0  0  0  0  0  0  0  0  0  0  0
    6.5812   -0.6828    0.0000 H   0  0  0  0  0  0  0  0  0  0  0  0
    5.8819   -2.5569    0.0000 H   0  0  0  0  0  0  0  0  0  0  0  0
    7.4630   -0.5971    0.0000 H   0  0  0  0  0  0  0  0  0  0  0  0
    8.3385   -0.6445    0.0000 H   0  0  0  0  0  0  0  0  0  0  0  0
    8.3859    0.2311    0.0000 H   0  0  0  0  0  0  0  0  0  0  0  0
    4.8709   -3.9510    0.0000 H   0  0  0  0  0  0  0  0  0  0  0  0
    9.0210    0.3844    0.0000 H   0  0  0  0  0  0  0  0  0  0  0  0
    7.8168    3.3345    0.0000 H   0  0  0  0  0  0  0  0  0  0  0  0
    8.4424    3.1300    0.0000 H   0  0  0  0  0  0  0  0  0  0  0  0
    5.7283    1.4606    0.0000 H   0  0  0  0  0  0  0  0  0  0  0  0
    2.8660   -0.9369    0.0000 H   0  0  0  0  0  0  0  0  0  0  0  0
    2.8660   -4.1769    0.0000 H   0  0  0  0  0  0  0  0  0  0  0  0
    1.4631   -1.7469    0.0000 H   0  0  0  0  0  0  0  0  0  0  0  0
    1.4631   -3.3669    0.0000 H   0  0  0  0  0  0  0  0  0  0  0  0
   10.6062    0.7185    0.0000 H   0  0  0  0  0  0  0  0  0  0  0  0
    6.7349    4.5403    0.0000 H   0  0  0  0  0  0  0  0  0  0  0  0
   10.0276    3.4641    0.0000 H   0  0  0  0  0  0  0  0  0  0  0  0
    4.6464    2.6664    0.0000 H   0  0  0  0  0  0  0  0  0  0  0  0
    5.1497    4.2062    0.0000 H   0  0  0  0  0  0  0  0  0  0  0  0
   11.1095    2.2583    0.0000 H   0  0  0  0  0  0  0  0  0  0  0  0
  1  8  2  0  0  0  0
  2  4  1  0  0  0  0
  2  8  1  0  0  0  0
  2 14  1  0  0  0  0
  3 12  1  0  0  0  0
  3 13  1  0  0  0  0
  3 38  1  0  0  0  0
  4  9  1  0  0  0  0
  4 10  1  0  0  0  0
  4 29  1  0  0  0  0
  5  6  1  0  0  0  0
  5  7  1  0  0  0  0
  5 30  1  0  0  0  0
  5 31  1  0  0  0  0
  6  8  1  0  0  0  0
  6 32  1  0  0  0  0
  6 33  1  0  0  0  0
  7 11  1  0  0  0  0
  7 13  2  0  0  0  0
  9 15  2  0  0  0  0
  9 17  1  0  0  0  0
 10 16  2  0  0  0  0
 10 18  1  0  0  0  0
 11 12  1  0  0  0  0
 11 19  2  0  0  0  0
 12 20  2  0  0  0  0
 13 34  1  0  0  0  0
 14 35  1  0  0  0  0
 14 36  1  0  0  0  0
 14 37  1  0  0  0  0
 15 23  1  0  0  0  0
 15 39  1  0  0  0  0
 16 24  1  0  0  0  0
 16 40  1  0  0  0  0
 17 25  2  0  0  0  0
 17 41  1  0  0  0  0
 18 26  2  0  0  0  0
 18 42  1  0  0  0  0
 19 21  1  0  0  0  0
 19 43  1  0  0  0  0
 20 22  1  0  0  0  0
 20 44  1  0  0  0  0
 21 22  2  0  0  0  0
 21 45  1  0  0  0  0
 22 46  1  0  0  0  0
 23 28  2  0  0  0  0
 23 47  1  0  0  0  0
 24 27  2  0  0  0  0
 24 48  1  0  0  0  0
 25 28  1  0  0  0  0
 25 49  1  0  0  0  0
 26 27  1  0  0  0  0
 26 50  1  0  0  0  0
 27 51  1  0  0  0  0
 28 52  1  0  0  0  0
M  END
> <PUBCHEM_COMPOUND_CID>
36421475

> <PUBCHEM_COMPOUND_CANONICALIZED>
1

> <PUBCHEM_CACTVS_COMPLEXITY>
477

> <PUBCHEM_CACTVS_HBOND_ACCEPTOR>
1

> <PUBCHEM_CACTVS_HBOND_DONOR>
1

> <PUBCHEM_CACTVS_ROTATABLE_BOND>
6

> <PUBCHEM_CACTVS_SUBSKEYS>
AAADceB7IAAAAAAAAAAAAAAAAAAAAWAAAAAwYMAAAAAAAFgB9AAAHgAQAAAADCjBngQ+wPPJkACoAzV3VACCgCAxAiAI2aE4ZJgIIPLAkZGEIAhglgDIyAcYicCOgAAAAAACAAAAAAAAAAQAAAAAAAAAAA==

> <PUBCHEM_IUPAC_OPENEYE_NAME>
N-benzhydryl-3-(1H-indol-3-yl)-N-methyl-propanamide

> <PUBCHEM_IUPAC_CAS_NAME>
N-(diphenylmethyl)-3-(1H-indol-3-yl)-N-methylpropanamide

> <PUBCHEM_IUPAC_NAME>
N-benzhydryl-3-(1H-indol-3-yl)-N-methylpropanamide

> <PUBCHEM_IUPAC_SYSTEMATIC_NAME>
N-(diphenylmethyl)-3-(1H-indol-3-yl)-N-methyl-propanamide

> <PUBCHEM_IUPAC_TRADITIONAL_NAME>
N-benzhydryl-3-(1H-indol-3-yl)-N-methyl-propionamide

> <PUBCHEM_IUPAC_INCHI>
InChI=1S/C25H24N2O/c1-27(24(28)17-16-21-18-26-23-15-9-8-14-22(21)23)25(19-10-4-2-5-11-19)20-12-6-3-7-13-20/h2-15,18,25-26H,16-17H2,1H3

> <PUBCHEM_IUPAC_INCHIKEY>
SUCQIGFXEWWQKX-UHFFFAOYSA-N

> <PUBCHEM_XLOGP3>
4.9

> <PUBCHEM_EXACT_MASS>
368.188863

> <PUBCHEM_MOLECULAR_FORMULA>
C25H24N2O

> <PUBCHEM_MOLECULAR_WEIGHT>
368.47086

> <PUBCHEM_OPENEYE_CAN_SMILES>
CN(C(C1=CC=CC=C1)C2=CC=CC=C2)C(=O)CCC3=CNC4=CC=CC=C43

> <PUBCHEM_OPENEYE_ISO_SMILES>
CN(C(C1=CC=CC=C1)C2=CC=CC=C2)C(=O)CCC3=CNC4=CC=CC=C43

> <PUBCHEM_CACTVS_TPSA>
36.1

> <PUBCHEM_MONOISOTOPIC_WEIGHT>
368.188863

> <PUBCHEM_TOTAL_CHARGE>
0

> <PUBCHEM_HEAVY_ATOM_COUNT>
28

> <PUBCHEM_ATOM_DEF_STEREO_COUNT>
0

> <PUBCHEM_ATOM_UDEF_STEREO_COUNT>
0

> <PUBCHEM_BOND_DEF_STEREO_COUNT>
0

> <PUBCHEM_BOND_UDEF_STEREO_COUNT>
0

> <PUBCHEM_ISOTOPIC_ATOM_COUNT>
0

> <PUBCHEM_COMPONENT_COUNT>
1

> <PUBCHEM_CACTVS_TAUTO_COUNT>
1

> <PUBCHEM_COORDINATE_TYPE>
1
5
255

> <PUBCHEM_BONDANNOTATIONS>
10  16  8
10  18  8
11  12  8
11  19  8
12  20  8
15  23  8
16  24  8
17  25  8
18  26  8
19  21  8
20  22  8
21  22  8
23  28  8
24  27  8
25  28  8
26  27  8
3  12  8
3  13  8
7  11  8
7  13  8
9  15  8
9  17  8

$$$$
