5932182
  -OEChem-06121304242D

 31 32  0     0  0  0  0  0  0999 V2000
    4.2690   -2.7673    0.0000 Br  0  0  0  0  0  0  0  0  0  0  0  0
    2.5369   -3.7673    0.0000 Br  0  0  0  0  0  0  0  0  0  0  0  0
    3.4030    0.7327    0.0000 O   0  0  0  0  0  0  0  0  0  0  0  0
    5.1350    0.7327    0.0000 N   0  0  0  0  0  0  0  0  0  0  0  0
    4.2690   -0.7673    0.0000 N   0  0  0  0  0  0  0  0  0  0  0  0
    6.0010    2.2327    0.0000 C   0  0  0  0  0  0  0  0  0  0  0  0
    6.0010    3.2327    0.0000 C   0  0  0  0  0  0  0  0  0  0  0  0
    5.1350    1.7327    0.0000 C   0  0  0  0  0  0  0  0  0  0  0  0
    6.8950    1.6980    0.0000 C   0  0  0  0  0  0  0  0  0  0  0  0
    5.1350    3.7327    0.0000 C   0  0  0  0  0  0  0  0  0  0  0  0
    4.2690    2.2327    0.0000 C   0  0  0  0  0  0  0  0  0  0  0  0
    6.8950    3.7673    0.0000 C   0  0  0  0  0  0  0  0  0  0  0  0
    4.2690    3.2327    0.0000 C   0  0  0  0  0  0  0  0  0  0  0  0
    7.8010    2.2118    0.0000 C   0  0  0  0  0  0  0  0  0  0  0  0
    7.8010    3.2535    0.0000 C   0  0  0  0  0  0  0  0  0  0  0  0
    4.2690    0.2327    0.0000 C   0  0  0  0  0  0  0  0  0  0  0  0
    3.4030   -1.2673    0.0000 C   0  0  0  0  0  0  0  0  0  0  0  0
    3.4030   -2.2673    0.0000 C   0  0  0  0  0  0  0  0  0  0  0  0
    2.5369   -2.7673    0.0000 C   0  0  0  0  0  0  0  0  0  0  0  0
    6.8878    1.0780    0.0000 H   0  0  0  0  0  0  0  0  0  0  0  0
    3.7320    1.9227    0.0000 H   0  0  0  0  0  0  0  0  0  0  0  0
    5.1350    4.3527    0.0000 H   0  0  0  0  0  0  0  0  0  0  0  0
    6.8878    4.3873    0.0000 H   0  0  0  0  0  0  0  0  0  0  0  0
    5.6720    0.4227    0.0000 H   0  0  0  0  0  0  0  0  0  0  0  0
    3.7320    3.5427    0.0000 H   0  0  0  0  0  0  0  0  0  0  0  0
    8.3368    1.8998    0.0000 H   0  0  0  0  0  0  0  0  0  0  0  0
    8.3368    3.5656    0.0000 H   0  0  0  0  0  0  0  0  0  0  0  0
    4.8059   -1.0773    0.0000 H   0  0  0  0  0  0  0  0  0  0  0  0
    3.1909   -0.6847    0.0000 H   0  0  0  0  0  0  0  0  0  0  0  0
    2.7924   -1.3750    0.0000 H   0  0  0  0  0  0  0  0  0  0  0  0
    2.0000   -2.4573    0.0000 H   0  0  0  0  0  0  0  0  0  0  0  0
  1 18  1  0  0  0  0
  2 19  1  0  0  0  0
  3 16  2  0  0  0  0
  4  8  1  0  0  0  0
  4 16  1  0  0  0  0
  4 24  1  0  0  0  0
  5 16  1  0  0  0  0
  5 17  1  0  0  0  0
  5 28  1  0  0  0  0
  6  7  1  0  0  0  0
  6  8  1  0  0  0  0
  6  9  2  0  0  0  0
  7 10  1  0  0  0  0
  7 12  2  0  0  0  0
  8 11  2  0  0  0  0
  9 14  1  0  0  0  0
  9 20  1  0  0  0  0
 10 13  2  0  0  0  0
 10 22  1  0  0  0  0
 11 13  1  0  0  0  0
 11 21  1  0  0  0  0
 12 15  1  0  0  0  0
 12 23  1  0  0  0  0
 13 25  1  0  0  0  0
 14 15  2  0  0  0  0
 14 26  1  0  0  0  0
 15 27  1  0  0  0  0
 17 18  1  0  0  0  0
 17 29  1  0  0  0  0
 17 30  1  0  0  0  0
 18 19  2  0  0  0  0
 19 31  1  0  0  0  0
M  END
> <PUBCHEM_COMPOUND_CID>
5932182

> <PUBCHEM_COMPOUND_CANONICALIZED>
1

> <PUBCHEM_CACTVS_COMPLEXITY>
346

> <PUBCHEM_CACTVS_HBOND_ACCEPTOR>
1

> <PUBCHEM_CACTVS_HBOND_DONOR>
2

> <PUBCHEM_CACTVS_ROTATABLE_BOND>
3

> <PUBCHEM_CACTVS_SUBSKEYS>
AAADccBzIAAAGAAAAAAAAAAAAAAAAAAAAAAwYAAAAAAAAADBUAAAHgBQAAABzAjBGAQxwMLAAACIAiRCUACCAAAhAgAIiIAIZIiIICLAkZGEIAholgJIyCcQgIAOgAAAQAASAAAAAACAACQAAAAAAAAAAA==

> <PUBCHEM_IUPAC_OPENEYE_NAME>
1-[(Z)-2,3-dibromoallyl]-3-(1-naphthyl)urea

> <PUBCHEM_IUPAC_CAS_NAME>
1-[(Z)-2,3-dibromoprop-2-enyl]-3-(1-naphthalenyl)urea

> <PUBCHEM_IUPAC_NAME>
1-[(Z)-2,3-dibromoprop-2-enyl]-3-naphthalen-1-ylurea

> <PUBCHEM_IUPAC_SYSTEMATIC_NAME>
1-[(Z)-2,3-bis(bromanyl)prop-2-enyl]-3-naphthalen-1-yl-urea

> <PUBCHEM_IUPAC_TRADITIONAL_NAME>
1-[(Z)-2,3-dibromoallyl]-3-(1-naphthyl)urea

> <PUBCHEM_IUPAC_INCHI>
InChI=1S/C14H12Br2N2O/c15-8-11(16)9-17-14(19)18-13-7-3-5-10-4-1-2-6-12(10)13/h1-8H,9H2,(H2,17,18,19)/b11-8-

> <PUBCHEM_IUPAC_INCHIKEY>
FQKRWHAWNPZLEJ-FLIBITNWSA-N

> <PUBCHEM_XLOGP3>
2.9

> <PUBCHEM_EXACT_MASS>
383.929591

> <PUBCHEM_MOLECULAR_FORMULA>
C14H12Br2N2O

> <PUBCHEM_MOLECULAR_WEIGHT>
384.06588

> <PUBCHEM_OPENEYE_CAN_SMILES>
C1=CC=C2C(=C1)C=CC=C2NC(=O)NCC(=CBr)Br

> <PUBCHEM_OPENEYE_ISO_SMILES>
C1=CC=C2C(=C1)C=CC=C2NC(=O)NC/C(=C/Br)/Br

> <PUBCHEM_CACTVS_TPSA>
41.1

> <PUBCHEM_MONOISOTOPIC_WEIGHT>
381.931637

> <PUBCHEM_TOTAL_CHARGE>
0

> <PUBCHEM_HEAVY_ATOM_COUNT>
19

> <PUBCHEM_ATOM_DEF_STEREO_COUNT>
0

> <PUBCHEM_ATOM_UDEF_STEREO_COUNT>
0

> <PUBCHEM_BOND_DEF_STEREO_COUNT>
1

> <PUBCHEM_BOND_UDEF_STEREO_COUNT>
0

> <PUBCHEM_ISOTOPIC_ATOM_COUNT>
0

> <PUBCHEM_COMPONENT_COUNT>
1

> <PUBCHEM_CACTVS_TAUTO_COUNT>
3

> <PUBCHEM_COORDINATE_TYPE>
1
5
255

> <PUBCHEM_BONDANNOTATIONS>
10  13  8
11  13  8
12  15  8
14  15  8
6  7  8
6  8  8
6  9  8
7  10  8
7  12  8
8  11  8
9  14  8

$$$$
5935444
  -OEChem-06121304242D

 31 32  0     0  0  0  0  0  0999 V2000
    2.0000   -3.2500    0.0000 Br  0  0  0  0  0  0  0  0  0  0  0  0
    2.8660    0.2500    0.0000 O   0  0  0  0  0  0  0  0  0  0  0  0
    5.4641    1.7500    0.0000 C   0  0  0  0  0  0  0  0  0  0  0  0
    7.1962    2.7500    0.0000 C   0  0  0  0  0  0  0  0  0  0  0  0
    6.3301    1.2500    0.0000 C   0  0  0  0  0  0  0  0  0  0  0  0
    5.4641    2.7500    0.0000 C   0  0  0  0  0  0  0  0  0  0  0  0
    7.1962    1.7500    0.0000 C   0  0  0  0  0  0  0  0  0  0  0  0
    6.3301    3.2500    0.0000 C   0  0  0  0  0  0  0  0  0  0  0  0
    3.7320   -1.2500    0.0000 C   0  0  0  0  0  0  0  0  0  0  0  0
    4.5981    1.2500    0.0000 C   0  0  0  0  0  0  0  0  0  0  0  0
    3.7320   -0.2500    0.0000 C   0  0  0  0  0  0  0  0  0  0  0  0
    4.5981    0.2500    0.0000 C   0  0  0  0  0  0  0  0  0  0  0  0
    8.0622    3.2500    0.0000 C   0  0  0  0  0  0  0  0  0  0  0  0
    2.8660   -1.7500    0.0000 C   0  0  0  0  0  0  0  0  0  0  0  0
    4.5981   -1.7500    0.0000 C   0  0  0  0  0  0  0  0  0  0  0  0
    2.8660   -2.7500    0.0000 C   0  0  0  0  0  0  0  0  0  0  0  0
    4.5981   -2.7500    0.0000 C   0  0  0  0  0  0  0  0  0  0  0  0
    3.7320   -3.2500    0.0000 C   0  0  0  0  0  0  0  0  0  0  0  0
    6.3301    0.6300    0.0000 H   0  0  0  0  0  0  0  0  0  0  0  0
    4.9272    3.0600    0.0000 H   0  0  0  0  0  0  0  0  0  0  0  0
    7.7331    1.4400    0.0000 H   0  0  0  0  0  0  0  0  0  0  0  0
    6.3301    3.8700    0.0000 H   0  0  0  0  0  0  0  0  0  0  0  0
    4.0611    1.5600    0.0000 H   0  0  0  0  0  0  0  0  0  0  0  0
    5.1350   -0.0600    0.0000 H   0  0  0  0  0  0  0  0  0  0  0  0
    8.3722    2.7131    0.0000 H   0  0  0  0  0  0  0  0  0  0  0  0
    8.5991    3.5600    0.0000 H   0  0  0  0  0  0  0  0  0  0  0  0
    7.7522    3.7869    0.0000 H   0  0  0  0  0  0  0  0  0  0  0  0
    2.3291   -1.4400    0.0000 H   0  0  0  0  0  0  0  0  0  0  0  0
    5.1350   -1.4400    0.0000 H   0  0  0  0  0  0  0  0  0  0  0  0
    5.1350   -3.0600    0.0000 H   0  0  0  0  0  0  0  0  0  0  0  0
    3.7320   -3.8700    0.0000 H   0  0  0  0  0  0  0  0  0  0  0  0
  1 16  1  0  0  0  0
  2 11  2  0  0  0  0
  3  5  2  0  0  0  0
  3  6  1  0  0  0  0
  3 10  1  0  0  0  0
  4  7  2  0  0  0  0
  4  8  1  0  0  0  0
  4 13  1  0  0  0  0
  5  7  1  0  0  0  0
  5 19  1  0  0  0  0
  6  8  2  0  0  0  0
  6 20  1  0  0  0  0
  7 21  1  0  0  0  0
  8 22  1  0  0  0  0
  9 11  1  0  0  0  0
  9 14  2  0  0  0  0
  9 15  1  0  0  0  0
 10 12  2  0  0  0  0
 10 23  1  0  0  0  0
 11 12  1  0  0  0  0
 12 24  1  0  0  0  0
 13 25  1  0  0  0  0
 13 26  1  0  0  0  0
 13 27  1  0  0  0  0
 14 16  1  0  0  0  0
 14 28  1  0  0  0  0
 15 17  2  0  0  0  0
 15 29  1  0  0  0  0
 16 18  2  0  0  0  0
 17 18  1  0  0  0  0
 17 30  1  0  0  0  0
 18 31  1  0  0  0  0
M  END
> <PUBCHEM_COMPOUND_CID>
5935444

> <PUBCHEM_COMPOUND_CANONICALIZED>
1

> <PUBCHEM_CACTVS_COMPLEXITY>
302

> <PUBCHEM_CACTVS_HBOND_ACCEPTOR>
1

> <PUBCHEM_CACTVS_HBOND_DONOR>
0

> <PUBCHEM_CACTVS_ROTATABLE_BOND>
3

> <PUBCHEM_CACTVS_SUBSKEYS>
AAADccB4IAAAEAAAAAAAAAAAAAAAAAAAAAAwYAAAAAAAAAABQAAAGgBAAAABrASAmAAyAIAAAACIAqBSAAACAAAkAAQIiAEAAOgIIDKAFRCAIQAggAAIi5cIiICOQAAAEAAAAACAAAAgAAAAAAAAAAAAAA==

> <PUBCHEM_IUPAC_OPENEYE_NAME>
(E)-1-(3-bromophenyl)-3-(p-tolyl)prop-2-en-1-one

> <PUBCHEM_IUPAC_CAS_NAME>
(E)-1-(3-bromophenyl)-3-(4-methylphenyl)-2-propen-1-one

> <PUBCHEM_IUPAC_NAME>
(E)-1-(3-bromophenyl)-3-(4-methylphenyl)prop-2-en-1-one

> <PUBCHEM_IUPAC_SYSTEMATIC_NAME>
(E)-1-(3-bromophenyl)-3-(4-methylphenyl)prop-2-en-1-one

> <PUBCHEM_IUPAC_TRADITIONAL_NAME>
(E)-1-(3-bromophenyl)-3-(p-tolyl)prop-2-en-1-one

> <PUBCHEM_IUPAC_INCHI>
InChI=1S/C16H13BrO/c1-12-5-7-13(8-6-12)9-10-16(18)14-3-2-4-15(17)11-14/h2-11H,1H3/b10-9+

> <PUBCHEM_IUPAC_INCHIKEY>
SSFBIJVHFIFWPE-MDZDMXLPSA-N

> <PUBCHEM_XLOGP3>
4.1

> <PUBCHEM_EXACT_MASS>
300.014977

> <PUBCHEM_MOLECULAR_FORMULA>
C16H13BrO

> <PUBCHEM_MOLECULAR_WEIGHT>
301.17782

> <PUBCHEM_OPENEYE_CAN_SMILES>
CC1=CC=C(C=C1)C=CC(=O)C2=CC(=CC=C2)Br

> <PUBCHEM_OPENEYE_ISO_SMILES>
CC1=CC=C(C=C1)/C=C/C(=O)C2=CC(=CC=C2)Br

> <PUBCHEM_CACTVS_TPSA>
17.1

> <PUBCHEM_MONOISOTOPIC_WEIGHT>
300.014977

> <PUBCHEM_TOTAL_CHARGE>
0

> <PUBCHEM_HEAVY_ATOM_COUNT>
18

> <PUBCHEM_ATOM_DEF_STEREO_COUNT>
0

> <PUBCHEM_ATOM_UDEF_STEREO_COUNT>
0

> <PUBCHEM_BOND_DEF_STEREO_COUNT>
1

> <PUBCHEM_BOND_UDEF_STEREO_COUNT>
0

> <PUBCHEM_ISOTOPIC_ATOM_COUNT>
0

> <PUBCHEM_COMPONENT_COUNT>
1

> <PUBCHEM_CACTVS_TAUTO_COUNT>
1

> <PUBCHEM_COORDINATE_TYPE>
1
5
255

> <PUBCHEM_BONDANNOTATIONS>
14  16  8
15  17  8
16  18  8
17  18  8
3  5  8
3  6  8
4  7  8
4  8  8
5  7  8
6  8  8
9  14  8
9  15  8

$$$$
5938126
  -OEChem-06121304242D

 43 45  0     0  0  0  0  0  0999 V2000
    6.3301   -1.7500    0.0000 O   0  0  0  0  0  0  0  0  0  0  0  0
    5.4641   -0.2500    0.0000 N   0  0  0  0  0  0  0  0  0  0  0  0
    5.4641    1.7500    0.0000 C   0  0  0  0  0  0  0  0  0  0  0  0
    4.5981    1.2500    0.0000 C   0  0  0  0  0  0  0  0  0  0  0  0
    6.3301    1.2500    0.0000 C   0  0  0  0  0  0  0  0  0  0  0  0
    4.5981    0.2500    0.0000 C   0  0  0  0  0  0  0  0  0  0  0  0
    6.3301    0.2500    0.0000 C   0  0  0  0  0  0  0  0  0  0  0  0
    5.4641    2.7500    0.0000 C   0  0  0  0  0  0  0  0  0  0  0  0
    5.4641   -1.2500    0.0000 C   0  0  0  0  0  0  0  0  0  0  0  0
    6.3301    3.2500    0.0000 C   0  0  0  0  0  0  0  0  0  0  0  0
    4.5981    3.2500    0.0000 C   0  0  0  0  0  0  0  0  0  0  0  0
    6.3301    4.2500    0.0000 C   0  0  0  0  0  0  0  0  0  0  0  0
    4.5981    4.2500    0.0000 C   0  0  0  0  0  0  0  0  0  0  0  0
    4.5981   -1.7500    0.0000 C   0  0  0  0  0  0  0  0  0  0  0  0
    5.4641    4.7500    0.0000 C   0  0  0  0  0  0  0  0  0  0  0  0
    4.5981   -2.7500    0.0000 C   0  0  0  0  0  0  0  0  0  0  0  0
    3.7320   -3.2500    0.0000 C   0  0  0  0  0  0  0  0  0  0  0  0
    2.8660   -2.7500    0.0000 C   0  0  0  0  0  0  0  0  0  0  0  0
    3.7320   -4.2500    0.0000 C   0  0  0  0  0  0  0  0  0  0  0  0
    2.0000   -3.2500    0.0000 C   0  0  0  0  0  0  0  0  0  0  0  0
    2.8660   -4.7500    0.0000 C   0  0  0  0  0  0  0  0  0  0  0  0
    2.0000   -4.2500    0.0000 C   0  0  0  0  0  0  0  0  0  0  0  0
    6.0010    2.0600    0.0000 H   0  0  0  0  0  0  0  0  0  0  0  0
    6.9407    1.1423    0.0000 H   0  0  0  0  0  0  0  0  0  0  0  0
    6.5422    1.8326    0.0000 H   0  0  0  0  0  0  0  0  0  0  0  0
    4.3860    1.8326    0.0000 H   0  0  0  0  0  0  0  0  0  0  0  0
    3.9875    1.1423    0.0000 H   0  0  0  0  0  0  0  0  0  0  0  0
    6.5422   -0.3326    0.0000 H   0  0  0  0  0  0  0  0  0  0  0  0
    6.9407    0.3577    0.0000 H   0  0  0  0  0  0  0  0  0  0  0  0
    3.9875    0.3577    0.0000 H   0  0  0  0  0  0  0  0  0  0  0  0
    4.3860   -0.3326    0.0000 H   0  0  0  0  0  0  0  0  0  0  0  0
    6.8671    2.9400    0.0000 H   0  0  0  0  0  0  0  0  0  0  0  0
    4.0611    2.9400    0.0000 H   0  0  0  0  0  0  0  0  0  0  0  0
    6.8671    4.5600    0.0000 H   0  0  0  0  0  0  0  0  0  0  0  0
    4.0611    4.5600    0.0000 H   0  0  0  0  0  0  0  0  0  0  0  0
    4.0611   -1.4400    0.0000 H   0  0  0  0  0  0  0  0  0  0  0  0
    5.4641    5.3700    0.0000 H   0  0  0  0  0  0  0  0  0  0  0  0
    5.1350   -3.0600    0.0000 H   0  0  0  0  0  0  0  0  0  0  0  0
    2.8660   -2.1300    0.0000 H   0  0  0  0  0  0  0  0  0  0  0  0
    4.2690   -4.5600    0.0000 H   0  0  0  0  0  0  0  0  0  0  0  0
    1.4631   -2.9400    0.0000 H   0  0  0  0  0  0  0  0  0  0  0  0
    2.8660   -5.3700    0.0000 H   0  0  0  0  0  0  0  0  0  0  0  0
    1.4631   -4.5600    0.0000 H   0  0  0  0  0  0  0  0  0  0  0  0
  1  9  2  0  0  0  0
  2  6  1  0  0  0  0
  2  7  1  0  0  0  0
  2  9  1  0  0  0  0
  3  4  1  0  0  0  0
  3  5  1  0  0  0  0
  3  8  1  0  0  0  0
  3 23  1  0  0  0  0
  4  6  1  0  0  0  0
  4 26  1  0  0  0  0
  4 27  1  0  0  0  0
  5  7  1  0  0  0  0
  5 24  1  0  0  0  0
  5 25  1  0  0  0  0
  6 30  1  0  0  0  0
  6 31  1  0  0  0  0
  7 28  1  0  0  0  0
  7 29  1  0  0  0  0
  8 10  2  0  0  0  0
  8 11  1  0  0  0  0
  9 14  1  0  0  0  0
 10 12  1  0  0  0  0
 10 32  1  0  0  0  0
 11 13  2  0  0  0  0
 11 33  1  0  0  0  0
 12 15  2  0  0  0  0
 12 34  1  0  0  0  0
 13 15  1  0  0  0  0
 13 35  1  0  0  0  0
 14 16  2  0  0  0  0
 14 36  1  0  0  0  0
 15 37  1  0  0  0  0
 16 17  1  0  0  0  0
 16 38  1  0  0  0  0
 17 18  2  0  0  0  0
 17 19  1  0  0  0  0
 18 20  1  0  0  0  0
 18 39  1  0  0  0  0
 19 21  2  0  0  0  0
 19 40  1  0  0  0  0
 20 22  2  0  0  0  0
 20 41  1  0  0  0  0
 21 22  1  0  0  0  0
 21 42  1  0  0  0  0
 22 43  1  0  0  0  0
M  END
> <PUBCHEM_COMPOUND_CID>
5938126

> <PUBCHEM_COMPOUND_CANONICALIZED>
1

> <PUBCHEM_CACTVS_COMPLEXITY>
369

> <PUBCHEM_CACTVS_HBOND_ACCEPTOR>
1

> <PUBCHEM_CACTVS_HBOND_DONOR>
0

> <PUBCHEM_CACTVS_ROTATABLE_BOND>
3

> <PUBCHEM_CACTVS_SUBSKEYS>
AAADceB6IAAAAAAAAAAAAAAAAAAAAAAAAAA8YIAAAAAAAAABQAAAHgAAAAAADQDBmAQwAIMAAACIAiFSEACCAAAgAAAIiAAIAMgIICKAkRCEIAAghgCIiYcQgMAOgAAAAAAAAAAAAAAAAAAAAAAAAAAAAA==

> <PUBCHEM_IUPAC_OPENEYE_NAME>
(E)-3-phenyl-1-(4-phenyl-1-piperidyl)prop-2-en-1-one

> <PUBCHEM_IUPAC_CAS_NAME>
(E)-3-phenyl-1-(4-phenyl-1-piperidinyl)-2-propen-1-one

> <PUBCHEM_IUPAC_NAME>
(E)-3-phenyl-1-(4-phenylpiperidin-1-yl)prop-2-en-1-one

> <PUBCHEM_IUPAC_SYSTEMATIC_NAME>
(E)-3-phenyl-1-(4-phenylpiperidin-1-yl)prop-2-en-1-one

> <PUBCHEM_IUPAC_TRADITIONAL_NAME>
(E)-3-phenyl-1-(4-phenylpiperidino)prop-2-en-1-one

> <PUBCHEM_IUPAC_INCHI>
InChI=1S/C20H21NO/c22-20(12-11-17-7-3-1-4-8-17)21-15-13-19(14-16-21)18-9-5-2-6-10-18/h1-12,19H,13-16H2/b12-11+

> <PUBCHEM_IUPAC_INCHIKEY>
VRGIZZGWMLEWLU-VAWYXSNFSA-N

> <PUBCHEM_XLOGP3>
4.1

> <PUBCHEM_EXACT_MASS>
291.162314

> <PUBCHEM_MOLECULAR_FORMULA>
C20H21NO

> <PUBCHEM_MOLECULAR_WEIGHT>
291.38684

> <PUBCHEM_OPENEYE_CAN_SMILES>
C1CN(CCC1C2=CC=CC=C2)C(=O)C=CC3=CC=CC=C3

> <PUBCHEM_OPENEYE_ISO_SMILES>
C1CN(CCC1C2=CC=CC=C2)C(=O)/C=C/C3=CC=CC=C3

> <PUBCHEM_CACTVS_TPSA>
20.3

> <PUBCHEM_MONOISOTOPIC_WEIGHT>
291.162314

> <PUBCHEM_TOTAL_CHARGE>
0

> <PUBCHEM_HEAVY_ATOM_COUNT>
22

> <PUBCHEM_ATOM_DEF_STEREO_COUNT>
0

> <PUBCHEM_ATOM_UDEF_STEREO_COUNT>
0

> <PUBCHEM_BOND_DEF_STEREO_COUNT>
1

> <PUBCHEM_BOND_UDEF_STEREO_COUNT>
0

> <PUBCHEM_ISOTOPIC_ATOM_COUNT>
0

> <PUBCHEM_COMPONENT_COUNT>
1

> <PUBCHEM_CACTVS_TAUTO_COUNT>
1

> <PUBCHEM_COORDINATE_TYPE>
1
5
255

> <PUBCHEM_BONDANNOTATIONS>
10  12  8
11  13  8
12  15  8
13  15  8
17  18  8
17  19  8
18  20  8
19  21  8
20  22  8
21  22  8
8  10  8
8  11  8

$$$$
5939356
  -OEChem-06121304242D

 38 40  0     1  0  0  0  0  0999 V2000
    2.8660   -0.4081    0.0000 S   0  0  0  0  0  0  0  0  0  0  0  0
    8.4448    0.1171    0.0000 S   0  0  0  0  0  0  0  0  0  0  0  0
    5.4460    1.8046    0.0000 O   0  0  0  0  0  0  0  0  0  0  0  0
    2.0000    3.0919    0.0000 O   0  0  0  0  0  0  0  0  0  0  0  0
    6.6732    0.6014    0.0000 O   0  0  0  0  0  0  0  0  0  0  0  0
    3.7321    3.0919    0.0000 O   0  0  0  0  0  0  0  0  0  0  0  0
    7.5629   -2.7465    0.0000 O   0  0  0  0  0  0  0  0  0  0  0  0
    3.7321    1.0919    0.0000 N   0  0  0  0  0  0  0  0  0  0  0  0
    5.4460   -0.6208    0.0000 N   0  0  0  0  0  0  0  0  0  0  0  0
    6.8573   -2.0379    0.0000 N   0  0  0  0  0  0  0  0  0  0  0  0
    9.7002   -0.9037    0.0000 N   0  0  0  0  0  0  0  0  0  0  0  0
   10.0743    0.8386    0.0000 N   0  0  0  0  0  0  0  0  0  0  0  0
    3.7321    0.0919    0.0000 C   0  0  3  0  0  0  0  0  0  0  0  0
    4.7403    0.0877    0.0000 C   0  0  3  0  0  0  0  0  0  0  0  0
    4.7403    1.0960    0.0000 C   0  0  0  0  0  0  0  0  0  0  0  0
    2.8660    1.5919    0.0000 C   0  0  0  0  0  0  0  0  0  0  0  0
    2.0000    0.0919    0.0000 C   0  0  0  0  0  0  0  0  0  0  0  0
    2.0000    1.0919    0.0000 C   0  0  0  0  0  0  0  0  0  0  0  0
    6.4124   -0.3640    0.0000 C   0  0  0  0  0  0  0  0  0  0  0  0
    2.8660    2.5919    0.0000 C   0  0  0  0  0  0  0  0  0  0  0  0
    7.1181   -1.0725    0.0000 C   0  0  0  0  0  0  0  0  0  0  0  0
    8.0845   -0.8157    0.0000 C   0  0  0  0  0  0  0  0  0  0  0  0
    8.8604   -1.4466    0.0000 C   0  0  0  0  0  0  0  0  0  0  0  0
    9.4434    0.0627    0.0000 C   0  0  0  0  0  0  0  0  0  0  0  0
    7.3021   -3.7119    0.0000 C   0  0  0  0  0  0  0  0  0  0  0  0
    3.8913   -0.5073    0.0000 H   0  0  0  0  0  0  0  0  0  0  0  0
    4.5013   -0.4843    0.0000 H   0  0  0  0  0  0  0  0  0  0  0  0
    5.2843   -1.2194    0.0000 H   0  0  0  0  0  0  0  0  0  0  0  0
    1.7879   -0.4907    0.0000 H   0  0  0  0  0  0  0  0  0  0  0  0
    1.3894    0.1995    0.0000 H   0  0  0  0  0  0  0  0  0  0  0  0
    1.4631    1.4019    0.0000 H   0  0  0  0  0  0  0  0  0  0  0  0
    2.0000    3.7119    0.0000 H   0  0  0  0  0  0  0  0  0  0  0  0
    8.8267   -2.0657    0.0000 H   0  0  0  0  0  0  0  0  0  0  0  0
    9.8533    1.4179    0.0000 H   0  0  0  0  0  0  0  0  0  0  0  0
   10.6864    0.7403    0.0000 H   0  0  0  0  0  0  0  0  0  0  0  0
    7.9007   -3.8736    0.0000 H   0  0  0  0  0  0  0  0  0  0  0  0
    7.1404   -4.3104    0.0000 H   0  0  0  0  0  0  0  0  0  0  0  0
    6.7036   -3.5502    0.0000 H   0  0  0  0  0  0  0  0  0  0  0  0
  1 13  1  0  0  0  0
  1 17  1  0  0  0  0
  2 22  1  0  0  0  0
  2 24  1  0  0  0  0
  3 15  2  0  0  0  0
  4 20  1  0  0  0  0
  4 32  1  0  0  0  0
  5 19  2  0  0  0  0
  6 20  2  0  0  0  0
  7 10  1  0  0  0  0
  7 25  1  0  0  0  0
  8 13  1  0  0  0  0
  8 15  1  0  0  0  0
  8 16  1  0  0  0  0
  9 14  1  0  0  0  0
  9 19  1  0  0  0  0
  9 28  1  0  0  0  0
 10 21  2  0  0  0  0
 11 23  1  0  0  0  0
 11 24  2  0  0  0  0
 12 24  1  0  0  0  0
 12 34  1  0  0  0  0
 12 35  1  0  0  0  0
 13 14  1  0  0  0  0
 13 26  1  0  0  0  0
 14 15  1  0  0  0  0
 14 27  1  0  0  0  0
 16 18  2  0  0  0  0
 16 20  1  0  0  0  0
 17 18  1  0  0  0  0
 17 29  1  0  0  0  0
 17 30  1  0  0  0  0
 18 31  1  0  0  0  0
 19 21  1  0  0  0  0
 21 22  1  0  0  0  0
 22 23  2  0  0  0  0
 23 33  1  0  0  0  0
 25 36  1  0  0  0  0
 25 37  1  0  0  0  0
 25 38  1  0  0  0  0
M  END
> <PUBCHEM_COMPOUND_CID>
5939356

> <PUBCHEM_COMPOUND_CANONICALIZED>
1

> <PUBCHEM_CACTVS_COMPLEXITY>
669

> <PUBCHEM_CACTVS_HBOND_ACCEPTOR>
10

> <PUBCHEM_CACTVS_HBOND_DONOR>
3

> <PUBCHEM_CACTVS_ROTATABLE_BOND>
5

> <PUBCHEM_CACTVS_SUBSKEYS>
AAADccBzuABgAAAAAAAAAAAAAABYAWAAAAAgAAAAAAAQAAABgAAAHgQUCAAACCjF0gavmRPYEgisATX3fAAA8KlxCjlAWI2oQFiCZJhghCEUEAAAFgLwUaAEAAAAAAAAAAAAAAAAAAAAAAAAAAAAAAAAAA==

> <PUBCHEM_IUPAC_OPENEYE_NAME>
7-[[(2E)-2-(2-aminothiazol-5-yl)-2-methoxyimino-acetyl]amino]-8-oxo-5-thia-1-azabicyclo[4.2.0]oct-2-ene-2-carboxylic acid

> <PUBCHEM_IUPAC_CAS_NAME>
7-[[(2E)-2-(2-amino-5-thiazolyl)-2-methoxyimino-1-oxoethyl]amino]-8-oxo-5-thia-1-azabicyclo[4.2.0]oct-2-ene-2-carboxylic acid

> <PUBCHEM_IUPAC_NAME>
7-[[(2E)-2-(2-amino-1,3-thiazol-5-yl)-2-methoxyiminoacetyl]amino]-8-oxo-5-thia-1-azabicyclo[4.2.0]oct-2-ene-2-carboxylic acid

> <PUBCHEM_IUPAC_SYSTEMATIC_NAME>
7-[[(2E)-2-(2-azanyl-1,3-thiazol-5-yl)-2-methoxyimino-ethanoyl]amino]-8-oxidanylidene-5-thia-1-azabicyclo[4.2.0]oct-2-ene-2-carboxylic acid

> <PUBCHEM_IUPAC_TRADITIONAL_NAME>
7-[[(2E)-2-(2-aminothiazol-5-yl)-2-methyloximino-acetyl]amino]-8-keto-5-thia-1-azabicyclo[4.2.0]oct-2-ene-2-carboxylic acid

> <PUBCHEM_IUPAC_INCHI>
InChI=1S/C13H13N5O5S2/c1-23-17-7(6-4-15-13(14)25-6)9(19)16-8-10(20)18-5(12(21)22)2-3-24-11(8)18/h2,4,8,11H,3H2,1H3,(H2,14,15)(H,16,19)(H,21,22)/b17-7-

> <PUBCHEM_IUPAC_INCHIKEY>
JYMYFOQORDMWJK-IDUWFGFVSA-N

> <PUBCHEM_XLOGP3>
0

> <PUBCHEM_EXACT_MASS>
383.035811

> <PUBCHEM_MOLECULAR_FORMULA>
C13H13N5O5S2

> <PUBCHEM_MOLECULAR_WEIGHT>
383.40282

> <PUBCHEM_OPENEYE_CAN_SMILES>
CON=C(C1=CN=C(S1)N)C(=O)NC2C3N(C2=O)C(=CCS3)C(=O)O

> <PUBCHEM_OPENEYE_ISO_SMILES>
CO/N=C(/C1=CN=C(S1)N)\C(=O)NC2C3N(C2=O)C(=CCS3)C(=O)O

> <PUBCHEM_CACTVS_TPSA>
201

> <PUBCHEM_MONOISOTOPIC_WEIGHT>
383.035811

> <PUBCHEM_TOTAL_CHARGE>
0

> <PUBCHEM_HEAVY_ATOM_COUNT>
25

> <PUBCHEM_ATOM_DEF_STEREO_COUNT>
0

> <PUBCHEM_ATOM_UDEF_STEREO_COUNT>
0

> <PUBCHEM_BOND_DEF_STEREO_COUNT>
1

> <PUBCHEM_BOND_UDEF_STEREO_COUNT>
0

> <PUBCHEM_ISOTOPIC_ATOM_COUNT>
0

> <PUBCHEM_COMPONENT_COUNT>
1

> <PUBCHEM_CACTVS_TAUTO_COUNT>
6

> <PUBCHEM_COORDINATE_TYPE>
1
5
255

> <PUBCHEM_BONDANNOTATIONS>
11  23  8
11  24  8
2  22  8
2  24  8
22  23  8

$$$$
5943955
  -OEChem-06121304242D

 50 53  0     1  0  0  0  0  0999 V2000
    9.7619    1.1908    0.0000 Br  0  0  0  0  0  0  0  0  0  0  0  0
    4.4026    1.1580    0.0000 O   0  0  0  0  0  0  0  0  0  0  0  0
    6.7485    0.0662    0.0000 O   0  0  0  0  0  0  0  0  0  0  0  0
    6.7523    2.2418    0.0000 O   0  0  0  0  0  0  0  0  0  0  0  0
    3.7066    3.1272    0.0000 O   0  0  0  0  0  0  0  0  0  0  0  0
    4.6783   -0.6025    0.0000 N   0  0  0  0  0  0  0  0  0  0  0  0
    4.6783   -2.2120    0.0000 N   0  0  0  0  0  0  0  0  0  0  0  0
    6.2619   -1.4072    0.0000 N   0  0  0  0  0  0  0  0  0  0  0  0
    2.8660   -0.4072    0.0000 N   0  0  0  0  0  0  0  0  0  0  0  0
    2.0000   -1.9072    0.0000 N   0  0  0  0  0  0  0  0  0  0  0  0
    6.7619   -2.2733    0.0000 N   0  0  0  0  0  0  0  0  0  0  0  0
    2.8660   -3.4072    0.0000 N   0  0  0  0  0  0  0  0  0  0  0  0
    5.9405    0.6554    0.0000 C   0  0  3  0  0  0  0  0  0  0  0  0
    4.9889    0.3480    0.0000 C   0  0  3  0  0  0  0  0  0  0  0  0
    5.9422    1.6554    0.0000 C   0  0  3  0  0  0  0  0  0  0  0  0
    4.9917    1.9660    0.0000 C   0  0  3  0  0  0  0  0  0  0  0  0
    4.6844    2.9176    0.0000 C   0  0  0  0  0  0  0  0  0  0  0  0
    3.7320   -0.9072    0.0000 C   0  0  0  0  0  0  0  0  0  0  0  0
    5.2619   -1.4072    0.0000 C   0  0  0  0  0  0  0  0  0  0  0  0
    3.7320   -1.9072    0.0000 C   0  0  0  0  0  0  0  0  0  0  0  0
    2.8660   -2.4072    0.0000 C   0  0  0  0  0  0  0  0  0  0  0  0
    2.0000   -0.9072    0.0000 C   0  0  0  0  0  0  0  0  0  0  0  0
    7.7619   -2.2733    0.0000 C   0  0  0  0  0  0  0  0  0  0  0  0
    8.2619   -1.4072    0.0000 C   0  0  0  0  0  0  0  0  0  0  0  0
    8.2619   -3.1393    0.0000 C   0  0  0  0  0  0  0  0  0  0  0  0
    9.2619   -1.4072    0.0000 C   0  0  0  0  0  0  0  0  0  0  0  0
    7.7619   -0.5412    0.0000 C   0  0  0  0  0  0  0  0  0  0  0  0
    9.7619   -0.5412    0.0000 C   0  0  0  0  0  0  0  0  0  0  0  0
    8.2619    0.3248    0.0000 C   0  0  0  0  0  0  0  0  0  0  0  0
    9.2619    0.3248    0.0000 C   0  0  0  0  0  0  0  0  0  0  0  0
    6.4934    0.9359    0.0000 H   0  0  0  0  0  0  0  0  0  0  0  0
    5.4266   -0.0911    0.0000 H   0  0  0  0  0  0  0  0  0  0  0  0
    5.8463    2.2679    0.0000 H   0  0  0  0  0  0  0  0  0  0  0  0
    4.3795    2.0641    0.0000 H   0  0  0  0  0  0  0  0  0  0  0  0
    5.2985    3.0029    0.0000 H   0  0  0  0  0  0  0  0  0  0  0  0
    4.7071    3.5372    0.0000 H   0  0  0  0  0  0  0  0  0  0  0  0
    7.3154    0.3174    0.0000 H   0  0  0  0  0  0  0  0  0  0  0  0
    6.6886    2.8585    0.0000 H   0  0  0  0  0  0  0  0  0  0  0  0
    3.5160    3.7172    0.0000 H   0  0  0  0  0  0  0  0  0  0  0  0
    6.5719   -0.8703    0.0000 H   0  0  0  0  0  0  0  0  0  0  0  0
    1.4631   -0.5972    0.0000 H   0  0  0  0  0  0  0  0  0  0  0  0
    2.3291   -3.7172    0.0000 H   0  0  0  0  0  0  0  0  0  0  0  0
    3.4030   -3.7172    0.0000 H   0  0  0  0  0  0  0  0  0  0  0  0
    7.7249   -3.4493    0.0000 H   0  0  0  0  0  0  0  0  0  0  0  0
    8.5719   -3.6762    0.0000 H   0  0  0  0  0  0  0  0  0  0  0  0
    8.7988   -2.8293    0.0000 H   0  0  0  0  0  0  0  0  0  0  0  0
    9.5719   -1.9442    0.0000 H   0  0  0  0  0  0  0  0  0  0  0  0
    7.1419   -0.5412    0.0000 H   0  0  0  0  0  0  0  0  0  0  0  0
   10.3819   -0.5412    0.0000 H   0  0  0  0  0  0  0  0  0  0  0  0
    7.9519    0.8618    0.0000 H   0  0  0  0  0  0  0  0  0  0  0  0
  1 30  1  0  0  0  0
  2 14  1  0  0  0  0
  2 16  1  0  0  0  0
  3 13  1  0  0  0  0
  3 37  1  0  0  0  0
  4 15  1  0  0  0  0
  4 38  1  0  0  0  0
  5 17  1  0  0  0  0
  5 39  1  0  0  0  0
  6 14  1  0  0  0  0
  6 18  1  0  0  0  0
  6 19  1  0  0  0  0
  7 19  2  0  0  0  0
  7 20  1  0  0  0  0
  8 11  1  0  0  0  0
  8 19  1  0  0  0  0
  8 40  1  0  0  0  0
  9 18  2  0  0  0  0
  9 22  1  0  0  0  0
 10 21  1  0  0  0  0
 10 22  2  0  0  0  0
 11 23  2  0  0  0  0
 12 21  1  0  0  0  0
 12 42  1  0  0  0  0
 12 43  1  0  0  0  0
 13 14  1  0  0  0  0
 13 15  1  0  0  0  0
 13 31  1  0  0  0  0
 14 32  1  0  0  0  0
 15 16  1  0  0  0  0
 15 33  1  0  0  0  0
 16 17  1  0  0  0  0
 16 34  1  0  0  0  0
 17 35  1  0  0  0  0
 17 36  1  0  0  0  0
 18 20  1  0  0  0  0
 20 21  2  0  0  0  0
 22 41  1  0  0  0  0
 23 24  1  0  0  0  0
 23 25  1  0  0  0  0
 24 26  2  0  0  0  0
 24 27  1  0  0  0  0
 25 44  1  0  0  0  0
 25 45  1  0  0  0  0
 25 46  1  0  0  0  0
 26 28  1  0  0  0  0
 26 47  1  0  0  0  0
 27 29  2  0  0  0  0
 27 48  1  0  0  0  0
 28 30  2  0  0  0  0
 28 49  1  0  0  0  0
 29 30  1  0  0  0  0
 29 50  1  0  0  0  0
M  END
> <PUBCHEM_COMPOUND_CID>
5943955

> <PUBCHEM_COMPOUND_CANONICALIZED>
1

> <PUBCHEM_CACTVS_COMPLEXITY>
623

> <PUBCHEM_CACTVS_HBOND_ACCEPTOR>
10

> <PUBCHEM_CACTVS_HBOND_DONOR>
5

> <PUBCHEM_CACTVS_ROTATABLE_BOND>
5

> <PUBCHEM_CACTVS_SUBSKEYS>
AAADceB7uAAAEAAAAAAAAAAAAAAAAWJAAAA8QAAAAAAAAFgB/AAAHgBYCAABrBzhnwY38L9uFgCgAyZjZACSgC0xEKQN2CA4VLiLeKLA2VCeZAgviALbijfwsIIOAgAAAAAAAAAEAAAAAAAAAAAAAAAAAA==

> <PUBCHEM_IUPAC_OPENEYE_NAME>
2-[6-amino-8-[(2Z)-2-[1-(4-bromophenyl)ethylidene]hydrazino]purin-9-yl]-5-(hydroxymethyl)tetrahydrofuran-3,4-diol

> <PUBCHEM_IUPAC_CAS_NAME>
2-[6-amino-8-[(2Z)-2-[1-(4-bromophenyl)ethylidene]hydrazinyl]-9-purinyl]-5-(hydroxymethyl)oxolane-3,4-diol

> <PUBCHEM_IUPAC_NAME>
2-[6-amino-8-[(2Z)-2-[1-(4-bromophenyl)ethylidene]hydrazinyl]purin-9-yl]-5-(hydroxymethyl)oxolane-3,4-diol

> <PUBCHEM_IUPAC_SYSTEMATIC_NAME>
2-[6-azanyl-8-[(2Z)-2-[1-(4-bromophenyl)ethylidene]hydrazinyl]purin-9-yl]-5-(hydroxymethyl)oxolane-3,4-diol

> <PUBCHEM_IUPAC_TRADITIONAL_NAME>
2-[6-amino-8-[(N'Z)-N'-[1-(4-bromophenyl)ethylidene]hydrazino]purin-9-yl]-5-methylol-tetrahydrofuran-3,4-diol

> <PUBCHEM_IUPAC_INCHI>
InChI=1S/C18H20BrN7O4/c1-8(9-2-4-10(19)5-3-9)24-25-18-23-12-15(20)21-7-22-16(12)26(18)17-14(29)13(28)11(6-27)30-17/h2-5,7,11,13-14,17,27-29H,6H2,1H3,(H,23,25)(H2,20,21,22)/b24-8-

> <PUBCHEM_IUPAC_INCHIKEY>
NONPXORJCBDTNQ-GYRAYZOKSA-N

> <PUBCHEM_XLOGP3>
1.8

> <PUBCHEM_EXACT_MASS>
477.076014

> <PUBCHEM_MOLECULAR_FORMULA>
C18H20BrN7O4

> <PUBCHEM_MOLECULAR_WEIGHT>
478.2999

> <PUBCHEM_OPENEYE_CAN_SMILES>
CC(=NNC1=NC2=C(N1C3C(C(C(O3)CO)O)O)N=CN=C2N)C4=CC=C(C=C4)Br

> <PUBCHEM_OPENEYE_ISO_SMILES>
C/C(=N/NC1=NC2=C(N1C3C(C(C(O3)CO)O)O)N=CN=C2N)/C4=CC=C(C=C4)Br

> <PUBCHEM_CACTVS_TPSA>
164

> <PUBCHEM_MONOISOTOPIC_WEIGHT>
477.076014

> <PUBCHEM_TOTAL_CHARGE>
0

> <PUBCHEM_HEAVY_ATOM_COUNT>
30

> <PUBCHEM_ATOM_DEF_STEREO_COUNT>
0

> <PUBCHEM_ATOM_UDEF_STEREO_COUNT>
4

> <PUBCHEM_BOND_DEF_STEREO_COUNT>
1

> <PUBCHEM_BOND_UDEF_STEREO_COUNT>
0

> <PUBCHEM_ISOTOPIC_ATOM_COUNT>
0

> <PUBCHEM_COMPONENT_COUNT>
1

> <PUBCHEM_CACTVS_TAUTO_COUNT>
6

> <PUBCHEM_COORDINATE_TYPE>
1
5
255

> <PUBCHEM_BONDANNOTATIONS>
10  21  8
10  22  8
16  17  3
18  20  8
20  21  8
24  26  8
24  27  8
26  28  8
27  29  8
28  30  8
29  30  8
13  3  3
15  4  3
14  6  3
6  18  8
6  19  8
7  19  8
7  20  8
9  18  8
9  22  8

$$$$
5944568
  -OEChem-06121304242D

 27 27  0     0  0  0  0  0  0999 V2000
    5.4641    2.5670    0.0000 Br  0  0  0  0  0  0  0  0  0  0  0  0
    2.8660    2.0670    0.0000 O   0  0  0  0  0  0  0  0  0  0  0  0
    4.5981    2.0670    0.0000 C   0  0  0  0  0  0  0  0  0  0  0  0
    3.7320    1.5670    0.0000 C   0  0  0  0  0  0  0  0  0  0  0  0
    4.0981    2.9330    0.0000 C   0  0  0  0  0  0  0  0  0  0  0  0
    5.0981    1.2010    0.0000 C   0  0  0  0  0  0  0  0  0  0  0  0
    3.7320    0.5670    0.0000 C   0  0  0  0  0  0  0  0  0  0  0  0
    2.8660   -0.9330    0.0000 C   0  0  0  0  0  0  0  0  0  0  0  0
    2.8660    0.0670    0.0000 C   0  0  0  0  0  0  0  0  0  0  0  0
    2.0000   -1.4330    0.0000 C   0  0  0  0  0  0  0  0  0  0  0  0
    3.7320   -1.4330    0.0000 C   0  0  0  0  0  0  0  0  0  0  0  0
    2.0000   -2.4330    0.0000 C   0  0  0  0  0  0  0  0  0  0  0  0
    3.7320   -2.4330    0.0000 C   0  0  0  0  0  0  0  0  0  0  0  0
    2.8660   -2.9330    0.0000 C   0  0  0  0  0  0  0  0  0  0  0  0
    4.6350    3.2430    0.0000 H   0  0  0  0  0  0  0  0  0  0  0  0
    3.7881    3.4700    0.0000 H   0  0  0  0  0  0  0  0  0  0  0  0
    3.5611    2.6230    0.0000 H   0  0  0  0  0  0  0  0  0  0  0  0
    4.5611    0.8910    0.0000 H   0  0  0  0  0  0  0  0  0  0  0  0
    5.4081    0.6640    0.0000 H   0  0  0  0  0  0  0  0  0  0  0  0
    5.6350    1.5110    0.0000 H   0  0  0  0  0  0  0  0  0  0  0  0
    4.2690    0.2570    0.0000 H   0  0  0  0  0  0  0  0  0  0  0  0
    2.3291    0.3770    0.0000 H   0  0  0  0  0  0  0  0  0  0  0  0
    1.4631   -1.1230    0.0000 H   0  0  0  0  0  0  0  0  0  0  0  0
    4.2690   -1.1230    0.0000 H   0  0  0  0  0  0  0  0  0  0  0  0
    1.4631   -2.7430    0.0000 H   0  0  0  0  0  0  0  0  0  0  0  0
    4.2690   -2.7430    0.0000 H   0  0  0  0  0  0  0  0  0  0  0  0
    2.8660   -3.5530    0.0000 H   0  0  0  0  0  0  0  0  0  0  0  0
  1  3  1  0  0  0  0
  2  4  2  0  0  0  0
  3  4  1  0  0  0  0
  3  5  1  0  0  0  0
  3  6  1  0  0  0  0
  4  7  1  0  0  0  0
  5 15  1  0  0  0  0
  5 16  1  0  0  0  0
  5 17  1  0  0  0  0
  6 18  1  0  0  0  0
  6 19  1  0  0  0  0
  6 20  1  0  0  0  0
  7  9  2  0  0  0  0
  7 21  1  0  0  0  0
  8  9  1  0  0  0  0
  8 10  2  0  0  0  0
  8 11  1  0  0  0  0
  9 22  1  0  0  0  0
 10 12  1  0  0  0  0
 10 23  1  0  0  0  0
 11 13  2  0  0  0  0
 11 24  1  0  0  0  0
 12 14  2  0  0  0  0
 12 25  1  0  0  0  0
 13 14  1  0  0  0  0
 13 26  1  0  0  0  0
 14 27  1  0  0  0  0
M  END
> <PUBCHEM_COMPOUND_CID>
5944568

> <PUBCHEM_COMPOUND_CANONICALIZED>
1

> <PUBCHEM_CACTVS_COMPLEXITY>
225

> <PUBCHEM_CACTVS_HBOND_ACCEPTOR>
1

> <PUBCHEM_CACTVS_HBOND_DONOR>
0

> <PUBCHEM_CACTVS_ROTATABLE_BOND>
3

> <PUBCHEM_CACTVS_SUBSKEYS>
AAADccBwIAAAEAAAAAAAAAAAAAAAAAAAAAAwAAAAAAAAAAABAAAAGgBAAAABjASAmAAyAIAAAACIAqBSAAACAAAgAAAIiAEAAOgoICKAERCAIAAggAAIiYcAgAAOAAAAAAAAAAAAAAAAAAAAAAAAAAAAAA==

> <PUBCHEM_IUPAC_OPENEYE_NAME>
(E)-4-bromo-4-methyl-1-phenyl-pent-1-en-3-one

> <PUBCHEM_IUPAC_CAS_NAME>
(E)-4-bromo-4-methyl-1-phenyl-1-penten-3-one

> <PUBCHEM_IUPAC_NAME>
(E)-4-bromo-4-methyl-1-phenylpent-1-en-3-one

> <PUBCHEM_IUPAC_SYSTEMATIC_NAME>
(E)-4-bromanyl-4-methyl-1-phenyl-pent-1-en-3-one

> <PUBCHEM_IUPAC_TRADITIONAL_NAME>
(E)-4-bromo-4-methyl-1-phenyl-pent-1-en-3-one

> <PUBCHEM_IUPAC_INCHI>
InChI=1S/C12H13BrO/c1-12(2,13)11(14)9-8-10-6-4-3-5-7-10/h3-9H,1-2H3/b9-8+

> <PUBCHEM_IUPAC_INCHIKEY>
LYDXYGFVXNGODU-CMDGGOBGSA-N

> <PUBCHEM_XLOGP3>
3.5

> <PUBCHEM_EXACT_MASS>
252.014977

> <PUBCHEM_MOLECULAR_FORMULA>
C12H13BrO

> <PUBCHEM_MOLECULAR_WEIGHT>
253.13502

> <PUBCHEM_OPENEYE_CAN_SMILES>
CC(C)(C(=O)C=CC1=CC=CC=C1)Br

> <PUBCHEM_OPENEYE_ISO_SMILES>
CC(C)(C(=O)/C=C/C1=CC=CC=C1)Br

> <PUBCHEM_CACTVS_TPSA>
17.1

> <PUBCHEM_MONOISOTOPIC_WEIGHT>
252.014977

> <PUBCHEM_TOTAL_CHARGE>
0

> <PUBCHEM_HEAVY_ATOM_COUNT>
14

> <PUBCHEM_ATOM_DEF_STEREO_COUNT>
0

> <PUBCHEM_ATOM_UDEF_STEREO_COUNT>
0

> <PUBCHEM_BOND_DEF_STEREO_COUNT>
1

> <PUBCHEM_BOND_UDEF_STEREO_COUNT>
0

> <PUBCHEM_ISOTOPIC_ATOM_COUNT>
0

> <PUBCHEM_COMPONENT_COUNT>
1

> <PUBCHEM_CACTVS_TAUTO_COUNT>
1

> <PUBCHEM_COORDINATE_TYPE>
1
5
255

> <PUBCHEM_BONDANNOTATIONS>
10  12  8
11  13  8
12  14  8
13  14  8
8  10  8
8  11  8

$$$$
5945275
  -OEChem-06121304242D

 33 34  0     0  0  0  0  0  0999 V2000
    5.6103    1.9468    0.0000 O   0  0  0  0  0  0  0  0  0  0  0  0
    4.6783   -2.5142    0.0000 N   0  0  0  0  0  0  0  0  0  0  0  0
    7.2566    1.4087    0.0000 N   0  0  0  0  0  0  0  0  0  0  0  0
    3.7320   -1.2095    0.0000 C   0  0  0  0  0  0  0  0  0  0  0  0
    4.6783   -0.9048    0.0000 C   0  0  0  0  0  0  0  0  0  0  0  0
    3.7320   -2.2095    0.0000 C   0  0  0  0  0  0  0  0  0  0  0  0
    7.5673    2.3592    0.0000 C   0  0  0  0  0  0  0  0  0  0  0  0
    5.2619   -1.7095    0.0000 C   0  0  0  0  0  0  0  0  0  0  0  0
    2.8660   -0.7095    0.0000 C   0  0  0  0  0  0  0  0  0  0  0  0
    4.9889    0.0458    0.0000 C   0  0  0  0  0  0  0  0  0  0  0  0
    2.8660   -2.7095    0.0000 C   0  0  0  0  0  0  0  0  0  0  0  0
    8.5458    2.5655    0.0000 C   0  0  0  0  0  0  0  0  0  0  0  0
    6.8994    3.1035    0.0000 C   0  0  0  0  0  0  0  0  0  0  0  0
    6.2781    1.2025    0.0000 C   0  0  0  0  0  0  0  0  0  0  0  0
    5.9674    0.2520    0.0000 C   0  0  0  0  0  0  0  0  0  0  0  0
    2.0000   -1.2095    0.0000 C   0  0  0  0  0  0  0  0  0  0  0  0
    2.0000   -2.2095    0.0000 C   0  0  0  0  0  0  0  0  0  0  0  0
    6.9606    2.2314    0.0000 H   0  0  0  0  0  0  0  0  0  0  0  0
    5.8819   -1.7095    0.0000 H   0  0  0  0  0  0  0  0  0  0  0  0
    4.8709   -3.1035    0.0000 H   0  0  0  0  0  0  0  0  0  0  0  0
    2.8660   -0.0895    0.0000 H   0  0  0  0  0  0  0  0  0  0  0  0
    7.6707    0.9473    0.0000 H   0  0  0  0  0  0  0  0  0  0  0  0
    4.5749    0.5072    0.0000 H   0  0  0  0  0  0  0  0  0  0  0  0
    7.3609    3.5176    0.0000 H   0  0  0  0  0  0  0  0  0  0  0  0
    6.4854    3.5650    0.0000 H   0  0  0  0  0  0  0  0  0  0  0  0
    8.6736    1.9588    0.0000 H   0  0  0  0  0  0  0  0  0  0  0  0
    9.1524    2.6933    0.0000 H   0  0  0  0  0  0  0  0  0  0  0  0
    8.4179    3.1721    0.0000 H   0  0  0  0  0  0  0  0  0  0  0  0
    6.4380    2.6895    0.0000 H   0  0  0  0  0  0  0  0  0  0  0  0
    2.8660   -3.3295    0.0000 H   0  0  0  0  0  0  0  0  0  0  0  0
    6.3815   -0.2095    0.0000 H   0  0  0  0  0  0  0  0  0  0  0  0
    1.4631   -0.8995    0.0000 H   0  0  0  0  0  0  0  0  0  0  0  0
    1.4631   -2.5195    0.0000 H   0  0  0  0  0  0  0  0  0  0  0  0
  1 14  2  0  0  0  0
  2  6  1  0  0  0  0
  2  8  1  0  0  0  0
  2 20  1  0  0  0  0
  3  7  1  0  0  0  0
  3 14  1  0  0  0  0
  3 22  1  0  0  0  0
  4  5  1  0  0  0  0
  4  6  1  0  0  0  0
  4  9  2  0  0  0  0
  5  8  2  0  0  0  0
  5 10  1  0  0  0  0
  6 11  2  0  0  0  0
  7 12  1  0  0  0  0
  7 13  1  0  0  0  0
  7 18  1  0  0  0  0
  8 19  1  0  0  0  0
  9 16  1  0  0  0  0
  9 21  1  0  0  0  0
 10 15  2  0  0  0  0
 10 23  1  0  0  0  0
 11 17  1  0  0  0  0
 11 30  1  0  0  0  0
 12 26  1  0  0  0  0
 12 27  1  0  0  0  0
 12 28  1  0  0  0  0
 13 24  1  0  0  0  0
 13 25  1  0  0  0  0
 13 29  1  0  0  0  0
 14 15  1  0  0  0  0
 15 31  1  0  0  0  0
 16 17  2  0  0  0  0
 16 32  1  0  0  0  0
 17 33  1  0  0  0  0
M  END
> <PUBCHEM_COMPOUND_CID>
5945275

> <PUBCHEM_COMPOUND_CANONICALIZED>
1

> <PUBCHEM_CACTVS_COMPLEXITY>
299

> <PUBCHEM_CACTVS_HBOND_ACCEPTOR>
1

> <PUBCHEM_CACTVS_HBOND_DONOR>
2

> <PUBCHEM_CACTVS_ROTATABLE_BOND>
3

> <PUBCHEM_CACTVS_SUBSKEYS>
AAADceBzIAAAAAAAAAAAAAAAAAAAAWAAAAAwAAAAAAAAAFgB8AAAHgAQAAAADCjBngQ+wPLJkACoAzV3VACCgCAxAiAI2aA4ZNgIIOLAkZGEIAhglgDIyYcQgMAOgAAAAAACAAAAAAAAAAQAAAAAAAAAAA==

> <PUBCHEM_IUPAC_OPENEYE_NAME>
(E)-3-(1H-indol-3-yl)-N-isopropyl-prop-2-enamide

> <PUBCHEM_IUPAC_CAS_NAME>
(E)-3-(1H-indol-3-yl)-N-propan-2-yl-2-propenamide

> <PUBCHEM_IUPAC_NAME>
(E)-3-(1H-indol-3-yl)-N-propan-2-ylprop-2-enamide

> <PUBCHEM_IUPAC_SYSTEMATIC_NAME>
(E)-3-(1H-indol-3-yl)-N-propan-2-yl-prop-2-enamide

> <PUBCHEM_IUPAC_TRADITIONAL_NAME>
(E)-3-(1H-indol-3-yl)-N-isopropyl-acrylamide

> <PUBCHEM_IUPAC_INCHI>
InChI=1S/C14H16N2O/c1-10(2)16-14(17)8-7-11-9-15-13-6-4-3-5-12(11)13/h3-10,15H,1-2H3,(H,16,17)/b8-7+

> <PUBCHEM_IUPAC_INCHIKEY>
YYUCDVSJWGIKSI-BQYQJAHWSA-N

> <PUBCHEM_XLOGP3>
2.7

> <PUBCHEM_EXACT_MASS>
228.126263

> <PUBCHEM_MOLECULAR_FORMULA>
C14H16N2O

> <PUBCHEM_MOLECULAR_WEIGHT>
228.28964

> <PUBCHEM_OPENEYE_CAN_SMILES>
CC(C)NC(=O)C=CC1=CNC2=CC=CC=C21

> <PUBCHEM_OPENEYE_ISO_SMILES>
CC(C)NC(=O)/C=C/C1=CNC2=CC=CC=C21

> <PUBCHEM_CACTVS_TPSA>
44.9

> <PUBCHEM_MONOISOTOPIC_WEIGHT>
228.126263

> <PUBCHEM_TOTAL_CHARGE>
0

> <PUBCHEM_HEAVY_ATOM_COUNT>
17

> <PUBCHEM_ATOM_DEF_STEREO_COUNT>
0

> <PUBCHEM_ATOM_UDEF_STEREO_COUNT>
0

> <PUBCHEM_BOND_DEF_STEREO_COUNT>
1

> <PUBCHEM_BOND_UDEF_STEREO_COUNT>
0

> <PUBCHEM_ISOTOPIC_ATOM_COUNT>
0

> <PUBCHEM_COMPONENT_COUNT>
1

> <PUBCHEM_CACTVS_TAUTO_COUNT>
5

> <PUBCHEM_COORDINATE_TYPE>
1
5
255

> <PUBCHEM_BONDANNOTATIONS>
11  17  8
16  17  8
2  6  8
2  8  8
4  5  8
4  6  8
4  9  8
5  8  8
6  11  8
9  16  8

$$$$
