17026584
  -OEChem-05181307572D

 39 41  0     0  0  0  0  0  0999 V2000
    7.9244    0.0861    0.0000 O   0  0  0  0  0  0  0  0  0  0  0  0
    4.6783   -3.0926    0.0000 N   0  0  0  0  0  0  0  0  0  0  0  0
    6.2781    0.6241    0.0000 N   0  0  0  0  0  0  0  0  0  0  0  0
    4.6783   -1.4831    0.0000 C   0  0  0  0  0  0  0  0  0  0  0  0
    4.9889   -0.5326    0.0000 C   0  0  0  0  0  0  0  0  0  0  0  0
    3.7320   -1.7879    0.0000 C   0  0  0  0  0  0  0  0  0  0  0  0
    3.7320   -2.7879    0.0000 C   0  0  0  0  0  0  0  0  0  0  0  0
    5.9674   -0.3264    0.0000 C   0  0  0  0  0  0  0  0  0  0  0  0
    5.2619   -2.2879    0.0000 C   0  0  0  0  0  0  0  0  0  0  0  0
    2.8660   -1.2879    0.0000 C   0  0  0  0  0  0  0  0  0  0  0  0
    2.8660   -3.2879    0.0000 C   0  0  0  0  0  0  0  0  0  0  0  0
    2.0000   -1.7879    0.0000 C   0  0  0  0  0  0  0  0  0  0  0  0
    7.2566    0.8304    0.0000 C   0  0  0  0  0  0  0  0  0  0  0  0
    2.0000   -2.7879    0.0000 C   0  0  0  0  0  0  0  0  0  0  0  0
    7.5673    1.7809    0.0000 C   0  0  0  0  0  0  0  0  0  0  0  0
    8.5458    1.9871    0.0000 C   0  0  0  0  0  0  0  0  0  0  0  0
    6.8994    2.5252    0.0000 C   0  0  0  0  0  0  0  0  0  0  0  0
    8.8564    2.9376    0.0000 C   0  0  0  0  0  0  0  0  0  0  0  0
    9.2136    1.2428    0.0000 C   0  0  0  0  0  0  0  0  0  0  0  0
    7.2101    3.4757    0.0000 C   0  0  0  0  0  0  0  0  0  0  0  0
    8.1886    3.6819    0.0000 C   0  0  0  0  0  0  0  0  0  0  0  0
    4.9684    0.0871    0.0000 H   0  0  0  0  0  0  0  0  0  0  0  0
    4.3751   -0.4453    0.0000 H   0  0  0  0  0  0  0  0  0  0  0  0
    5.9880   -0.9460    0.0000 H   0  0  0  0  0  0  0  0  0  0  0  0
    6.5812   -0.4137    0.0000 H   0  0  0  0  0  0  0  0  0  0  0  0
    5.8819   -2.2879    0.0000 H   0  0  0  0  0  0  0  0  0  0  0  0
    4.8709   -3.6819    0.0000 H   0  0  0  0  0  0  0  0  0  0  0  0
    2.8660   -0.6679    0.0000 H   0  0  0  0  0  0  0  0  0  0  0  0
    5.8640    1.0856    0.0000 H   0  0  0  0  0  0  0  0  0  0  0  0
    2.8660   -3.9079    0.0000 H   0  0  0  0  0  0  0  0  0  0  0  0
    1.4631   -1.4779    0.0000 H   0  0  0  0  0  0  0  0  0  0  0  0
    1.4631   -3.0979    0.0000 H   0  0  0  0  0  0  0  0  0  0  0  0
    6.2928    2.3973    0.0000 H   0  0  0  0  0  0  0  0  0  0  0  0
    9.4631    3.0655    0.0000 H   0  0  0  0  0  0  0  0  0  0  0  0
    8.7522    0.8287    0.0000 H   0  0  0  0  0  0  0  0  0  0  0  0
    9.6277    0.7813    0.0000 H   0  0  0  0  0  0  0  0  0  0  0  0
    9.6751    1.6568    0.0000 H   0  0  0  0  0  0  0  0  0  0  0  0
    6.7960    3.9372    0.0000 H   0  0  0  0  0  0  0  0  0  0  0  0
    8.3812    4.2712    0.0000 H   0  0  0  0  0  0  0  0  0  0  0  0
  1 13  2  0  0  0  0
  2  7  1  0  0  0  0
  2  9  1  0  0  0  0
  2 27  1  0  0  0  0
  3  8  1  0  0  0  0
  3 13  1  0  0  0  0
  3 29  1  0  0  0  0
  4  5  1  0  0  0  0
  4  6  1  0  0  0  0
  4  9  2  0  0  0  0
  5  8  1  0  0  0  0
  5 22  1  0  0  0  0
  5 23  1  0  0  0  0
  6  7  1  0  0  0  0
  6 10  2  0  0  0  0
  7 11  2  0  0  0  0
  8 24  1  0  0  0  0
  8 25  1  0  0  0  0
  9 26  1  0  0  0  0
 10 12  1  0  0  0  0
 10 28  1  0  0  0  0
 11 14  1  0  0  0  0
 11 30  1  0  0  0  0
 12 14  2  0  0  0  0
 12 31  1  0  0  0  0
 13 15  1  0  0  0  0
 14 32  1  0  0  0  0
 15 16  1  0  0  0  0
 15 17  2  0  0  0  0
 16 18  2  0  0  0  0
 16 19  1  0  0  0  0
 17 20  1  0  0  0  0
 17 33  1  0  0  0  0
 18 21  1  0  0  0  0
 18 34  1  0  0  0  0
 19 35  1  0  0  0  0
 19 36  1  0  0  0  0
 19 37  1  0  0  0  0
 20 21  2  0  0  0  0
 20 38  1  0  0  0  0
 21 39  1  0  0  0  0
M  END
> <PUBCHEM_COMPOUND_CID>
17026584

> <PUBCHEM_COMPOUND_CANONICALIZED>
1

> <PUBCHEM_CACTVS_COMPLEXITY>
357

> <PUBCHEM_CACTVS_HBOND_ACCEPTOR>
1

> <PUBCHEM_CACTVS_HBOND_DONOR>
2

> <PUBCHEM_CACTVS_ROTATABLE_BOND>
4

> <PUBCHEM_CACTVS_SUBSKEYS>
AAADceB7IAAAAAAAAAAAAAAAAAAAAWAAAAAwYAAAAAAAAFgB9AAAHgAQAAAADAjBngQ+wPLJkACoAzV3VACCgCA1AiAI2aE4ZNgIIPLAlZGEIQhglgDIyYcYiMCOgAAAAAASAAAAAAAAACQAAAAAAAAAAA==

> <PUBCHEM_IUPAC_OPENEYE_NAME>
N-[2-(1H-indol-3-yl)ethyl]-2-methyl-benzamide

> <PUBCHEM_IUPAC_CAS_NAME>
N-[2-(1H-indol-3-yl)ethyl]-2-methylbenzamide

> <PUBCHEM_IUPAC_NAME>
N-[2-(1H-indol-3-yl)ethyl]-2-methylbenzamide

> <PUBCHEM_IUPAC_SYSTEMATIC_NAME>
N-[2-(1H-indol-3-yl)ethyl]-2-methyl-benzamide

> <PUBCHEM_IUPAC_TRADITIONAL_NAME>
N-[2-(1H-indol-3-yl)ethyl]-2-methyl-benzamide

> <PUBCHEM_IUPAC_INCHI>
InChI=1S/C18H18N2O/c1-13-6-2-3-7-15(13)18(21)19-11-10-14-12-20-17-9-5-4-8-16(14)17/h2-9,12,20H,10-11H2,1H3,(H,19,21)

> <PUBCHEM_IUPAC_INCHIKEY>
BECYMJXRQLSNHA-UHFFFAOYSA-N

> <PUBCHEM_XLOGP3>
3.8

> <PUBCHEM_EXACT_MASS>
278.141913

> <PUBCHEM_MOLECULAR_FORMULA>
C18H18N2O

> <PUBCHEM_MOLECULAR_WEIGHT>
278.34832

> <PUBCHEM_OPENEYE_CAN_SMILES>
CC1=CC=CC=C1C(=O)NCCC2=CNC3=CC=CC=C32

> <PUBCHEM_OPENEYE_ISO_SMILES>
CC1=CC=CC=C1C(=O)NCCC2=CNC3=CC=CC=C32

> <PUBCHEM_CACTVS_TPSA>
44.9

> <PUBCHEM_MONOISOTOPIC_WEIGHT>
278.141913

> <PUBCHEM_TOTAL_CHARGE>
0

> <PUBCHEM_HEAVY_ATOM_COUNT>
21

> <PUBCHEM_ATOM_DEF_STEREO_COUNT>
0

> <PUBCHEM_ATOM_UDEF_STEREO_COUNT>
0

> <PUBCHEM_BOND_DEF_STEREO_COUNT>
0

> <PUBCHEM_BOND_UDEF_STEREO_COUNT>
0

> <PUBCHEM_ISOTOPIC_ATOM_COUNT>
0

> <PUBCHEM_COMPONENT_COUNT>
1

> <PUBCHEM_CACTVS_TAUTO_COUNT>
2

> <PUBCHEM_COORDINATE_TYPE>
1
5
255

> <PUBCHEM_BONDANNOTATIONS>
10  12  8
11  14  8
12  14  8
15  16  8
15  17  8
16  18  8
17  20  8
18  21  8
2  7  8
2  9  8
20  21  8
4  6  8
4  9  8
6  10  8
6  7  8
7  11  8

$$$$
17039611
  -OEChem-05181307582D

 26 27  0     0  0  0  0  0  0999 V2000
    6.3580    1.0347    0.0000 N   0  0  0  0  0  0  0  0  0  0  0  0
    3.7320   -0.5000    0.0000 C   0  0  0  0  0  0  0  0  0  0  0  0
    5.4641   -0.5000    0.0000 C   0  0  0  0  0  0  0  0  0  0  0  0
    5.4641    0.5000    0.0000 C   0  0  0  0  0  0  0  0  0  0  0  0
    4.5981   -1.0000    0.0000 C   0  0  0  0  0  0  0  0  0  0  0  0
    2.8660   -1.0000    0.0000 C   0  0  0  0  0  0  0  0  0  0  0  0
    3.7320    0.5000    0.0000 C   0  0  0  0  0  0  0  0  0  0  0  0
    4.5981    1.0000    0.0000 C   0  0  0  0  0  0  0  0  0  0  0  0
    6.3580   -1.0347    0.0000 C   0  0  0  0  0  0  0  0  0  0  0  0
    7.2641    0.5208    0.0000 C   0  0  0  0  0  0  0  0  0  0  0  0
    7.2641   -0.5208    0.0000 C   0  0  0  0  0  0  0  0  0  0  0  0
    2.0000   -0.5000    0.0000 C   0  0  0  0  0  0  0  0  0  0  0  0
    8.1282    1.0241    0.0000 C   0  0  0  0  0  0  0  0  0  0  0  0
    4.5981   -1.6200    0.0000 H   0  0  0  0  0  0  0  0  0  0  0  0
    2.4675   -1.4750    0.0000 H   0  0  0  0  0  0  0  0  0  0  0  0
    3.2646   -1.4750    0.0000 H   0  0  0  0  0  0  0  0  0  0  0  0
    3.1951    0.8100    0.0000 H   0  0  0  0  0  0  0  0  0  0  0  0
    4.5981    1.6200    0.0000 H   0  0  0  0  0  0  0  0  0  0  0  0
    6.3509   -1.6546    0.0000 H   0  0  0  0  0  0  0  0  0  0  0  0
    7.7998   -0.8329    0.0000 H   0  0  0  0  0  0  0  0  0  0  0  0
    2.3100    0.0369    0.0000 H   0  0  0  0  0  0  0  0  0  0  0  0
    1.4631   -0.1900    0.0000 H   0  0  0  0  0  0  0  0  0  0  0  0
    1.6900   -1.0369    0.0000 H   0  0  0  0  0  0  0  0  0  0  0  0
    8.4403    0.4884    0.0000 H   0  0  0  0  0  0  0  0  0  0  0  0
    8.6639    1.3362    0.0000 H   0  0  0  0  0  0  0  0  0  0  0  0
    7.8161    1.5599    0.0000 H   0  0  0  0  0  0  0  0  0  0  0  0
  1  4  1  0  0  0  0
  1 10  2  0  0  0  0
  2  5  2  0  0  0  0
  2  6  1  0  0  0  0
  2  7  1  0  0  0  0
  3  4  2  0  0  0  0
  3  5  1  0  0  0  0
  3  9  1  0  0  0  0
  4  8  1  0  0  0  0
  5 14  1  0  0  0  0
  6 12  1  0  0  0  0
  6 15  1  0  0  0  0
  6 16  1  0  0  0  0
  7  8  2  0  0  0  0
  7 17  1  0  0  0  0
  8 18  1  0  0  0  0
  9 11  2  0  0  0  0
  9 19  1  0  0  0  0
 10 11  1  0  0  0  0
 10 13  1  0  0  0  0
 11 20  1  0  0  0  0
 12 21  1  0  0  0  0
 12 22  1  0  0  0  0
 12 23  1  0  0  0  0
 13 24  1  0  0  0  0
 13 25  1  0  0  0  0
 13 26  1  0  0  0  0
M  END
> <PUBCHEM_COMPOUND_CID>
17039611

> <PUBCHEM_COMPOUND_CANONICALIZED>
1

> <PUBCHEM_CACTVS_COMPLEXITY>
167

> <PUBCHEM_CACTVS_HBOND_ACCEPTOR>
1

> <PUBCHEM_CACTVS_HBOND_DONOR>
0

> <PUBCHEM_CACTVS_ROTATABLE_BOND>
1

> <PUBCHEM_CACTVS_SUBSKEYS>
AAADccByAAAAAAAAAAAAAAAAAAAAAAAAAAA8QAAAAAAAAACx8AAAHAAAAAAADAiBHgAywPIIEACgAyRiRACCgCAhAiAImCAwZJgIIOLAkZGEIAhggADIyAcQgMAOCAACAAACAAAQAAQAAAQAAAAAAAAAAA==

> <PUBCHEM_IUPAC_OPENEYE_NAME>
6-ethyl-2-methyl-quinoline

> <PUBCHEM_IUPAC_CAS_NAME>
6-ethyl-2-methylquinoline

> <PUBCHEM_IUPAC_NAME>
6-ethyl-2-methylquinoline

> <PUBCHEM_IUPAC_SYSTEMATIC_NAME>
6-ethyl-2-methyl-quinoline

> <PUBCHEM_IUPAC_TRADITIONAL_NAME>
6-ethyl-2-methyl-quinoline

> <PUBCHEM_IUPAC_INCHI>
InChI=1S/C12H13N/c1-3-10-5-7-12-11(8-10)6-4-9(2)13-12/h4-8H,3H2,1-2H3

> <PUBCHEM_IUPAC_INCHIKEY>
RJDKHMUUFKNIBW-UHFFFAOYSA-N

> <PUBCHEM_XLOGP3>
3.4

> <PUBCHEM_EXACT_MASS>
171.104799

> <PUBCHEM_MOLECULAR_FORMULA>
C12H13N

> <PUBCHEM_MOLECULAR_WEIGHT>
171.23832

> <PUBCHEM_OPENEYE_CAN_SMILES>
CCC1=CC2=C(C=C1)N=C(C=C2)C

> <PUBCHEM_OPENEYE_ISO_SMILES>
CCC1=CC2=C(C=C1)N=C(C=C2)C

> <PUBCHEM_CACTVS_TPSA>
12.9

> <PUBCHEM_MONOISOTOPIC_WEIGHT>
171.104799

> <PUBCHEM_TOTAL_CHARGE>
0

> <PUBCHEM_HEAVY_ATOM_COUNT>
13

> <PUBCHEM_ATOM_DEF_STEREO_COUNT>
0

> <PUBCHEM_ATOM_UDEF_STEREO_COUNT>
0

> <PUBCHEM_BOND_DEF_STEREO_COUNT>
0

> <PUBCHEM_BOND_UDEF_STEREO_COUNT>
0

> <PUBCHEM_ISOTOPIC_ATOM_COUNT>
0

> <PUBCHEM_COMPONENT_COUNT>
1

> <PUBCHEM_CACTVS_TAUTO_COUNT>
1

> <PUBCHEM_COORDINATE_TYPE>
1
5
255

> <PUBCHEM_BONDANNOTATIONS>
1  10  8
1  4  8
10  11  8
2  5  8
2  7  8
3  4  8
3  5  8
3  9  8
4  8  8
7  8  8
9  11  8

$$$$
17039649
  -OEChem-05181307582D

 20 21  0     0  0  0  0  0  0999 V2000
    7.2622   -1.0241    0.0000 Br  0  0  0  0  0  0  0  0  0  0  0  0
    3.7320    1.0000    0.0000 N   0  0  0  0  0  0  0  0  0  0  0  0
    4.5981   -0.5000    0.0000 C   0  0  0  0  0  0  0  0  0  0  0  0
    4.5981    0.5000    0.0000 C   0  0  0  0  0  0  0  0  0  0  0  0
    3.7320   -1.0000    0.0000 C   0  0  0  0  0  0  0  0  0  0  0  0
    2.8660   -0.5000    0.0000 C   0  0  0  0  0  0  0  0  0  0  0  0
    5.4920   -1.0347    0.0000 C   0  0  0  0  0  0  0  0  0  0  0  0
    5.4920    1.0347    0.0000 C   0  0  0  0  0  0  0  0  0  0  0  0
    2.8660    0.5000    0.0000 C   0  0  0  0  0  0  0  0  0  0  0  0
    6.3981   -0.5208    0.0000 C   0  0  0  0  0  0  0  0  0  0  0  0
    6.3981    0.5208    0.0000 C   0  0  0  0  0  0  0  0  0  0  0  0
    2.0000   -1.0000    0.0000 C   0  0  0  0  0  0  0  0  0  0  0  0
    3.7320   -1.6200    0.0000 H   0  0  0  0  0  0  0  0  0  0  0  0
    5.4848   -1.6546    0.0000 H   0  0  0  0  0  0  0  0  0  0  0  0
    5.4848    1.6546    0.0000 H   0  0  0  0  0  0  0  0  0  0  0  0
    2.3291    0.8100    0.0000 H   0  0  0  0  0  0  0  0  0  0  0  0
    1.6900   -0.4631    0.0000 H   0  0  0  0  0  0  0  0  0  0  0  0
    1.4631   -1.3100    0.0000 H   0  0  0  0  0  0  0  0  0  0  0  0
    2.3100   -1.5369    0.0000 H   0  0  0  0  0  0  0  0  0  0  0  0
    6.9338    0.8329    0.0000 H   0  0  0  0  0  0  0  0  0  0  0  0
  1 10  1  0  0  0  0
  2  4  1  0  0  0  0
  2  9  2  0  0  0  0
  3  4  2  0  0  0  0
  3  5  1  0  0  0  0
  3  7  1  0  0  0  0
  4  8  1  0  0  0  0
  5  6  2  0  0  0  0
  5 13  1  0  0  0  0
  6  9  1  0  0  0  0
  6 12  1  0  0  0  0
  7 10  2  0  0  0  0
  7 14  1  0  0  0  0
  8 11  2  0  0  0  0
  8 15  1  0  0  0  0
  9 16  1  0  0  0  0
 10 11  1  0  0  0  0
 11 20  1  0  0  0  0
 12 17  1  0  0  0  0
 12 18  1  0  0  0  0
 12 19  1  0  0  0  0
M  END
> <PUBCHEM_COMPOUND_CID>
17039649

> <PUBCHEM_COMPOUND_CANONICALIZED>
1

> <PUBCHEM_CACTVS_COMPLEXITY>
160

> <PUBCHEM_CACTVS_HBOND_ACCEPTOR>
1

> <PUBCHEM_CACTVS_HBOND_DONOR>
0

> <PUBCHEM_CACTVS_ROTATABLE_BOND>
0

> <PUBCHEM_CACTVS_SUBSKEYS>
AAADccByAAAAEAAAAAAAAAAAAAAAAAAAAAA8QAAAAAAAAACx8AAAHABAAAABrAjBHgQ+wPIIEACgAzRnRACCgCAxAiQI2CA4ZLgIIOLAkZGEIAhggADIyhcQgMAOAAAgEAACAAAAAEAgAAQAAAAAAAAAAA==

> <PUBCHEM_IUPAC_OPENEYE_NAME>
6-bromo-3-methyl-quinoline

> <PUBCHEM_IUPAC_CAS_NAME>
6-bromo-3-methylquinoline

> <PUBCHEM_IUPAC_NAME>
6-bromo-3-methylquinoline

> <PUBCHEM_IUPAC_SYSTEMATIC_NAME>
6-bromanyl-3-methyl-quinoline

> <PUBCHEM_IUPAC_TRADITIONAL_NAME>
6-bromo-3-methyl-quinoline

> <PUBCHEM_IUPAC_INCHI>
InChI=1S/C10H8BrN/c1-7-4-8-5-9(11)2-3-10(8)12-6-7/h2-6H,1H3

> <PUBCHEM_IUPAC_INCHIKEY>
VLKIHAKQTRBPLC-UHFFFAOYSA-N

> <PUBCHEM_XLOGP3>
3.2

> <PUBCHEM_EXACT_MASS>
220.984011

> <PUBCHEM_MOLECULAR_FORMULA>
C10H8BrN

> <PUBCHEM_MOLECULAR_WEIGHT>
222.08122

> <PUBCHEM_OPENEYE_CAN_SMILES>
CC1=CN=C2C=CC(=CC2=C1)Br

> <PUBCHEM_OPENEYE_ISO_SMILES>
CC1=CN=C2C=CC(=CC2=C1)Br

> <PUBCHEM_CACTVS_TPSA>
12.9

> <PUBCHEM_MONOISOTOPIC_WEIGHT>
220.984011

> <PUBCHEM_TOTAL_CHARGE>
0

> <PUBCHEM_HEAVY_ATOM_COUNT>
12

> <PUBCHEM_ATOM_DEF_STEREO_COUNT>
0

> <PUBCHEM_ATOM_UDEF_STEREO_COUNT>
0

> <PUBCHEM_BOND_DEF_STEREO_COUNT>
0

> <PUBCHEM_BOND_UDEF_STEREO_COUNT>
0

> <PUBCHEM_ISOTOPIC_ATOM_COUNT>
0

> <PUBCHEM_COMPONENT_COUNT>
1

> <PUBCHEM_CACTVS_TAUTO_COUNT>
1

> <PUBCHEM_COORDINATE_TYPE>
1
5
255

> <PUBCHEM_BONDANNOTATIONS>
10  11  8
2  4  8
2  9  8
3  4  8
3  5  8
3  7  8
4  8  8
5  6  8
6  9  8
7  10  8
8  11  8

$$$$
17039832
  -OEChem-05181307582D

 17 18  0     0  0  0  0  0  0999 V2000
    5.4804   -1.5346    0.0000 Cl  0  0  0  0  0  0  0  0  0  0  0  0
    2.0000   -0.5000    0.0000 Cl  0  0  0  0  0  0  0  0  0  0  0  0
    2.0000    1.5000    0.0000 Cl  0  0  0  0  0  0  0  0  0  0  0  0
    5.4920    1.5346    0.0000 N   0  0  0  0  0  0  0  0  0  0  0  0
    4.5981    0.0000    0.0000 C   0  0  0  0  0  0  0  0  0  0  0  0
    4.5981    1.0000    0.0000 C   0  0  0  0  0  0  0  0  0  0  0  0
    3.7320   -0.5000    0.0000 C   0  0  0  0  0  0  0  0  0  0  0  0
    3.7320    1.5000    0.0000 C   0  0  0  0  0  0  0  0  0  0  0  0
    5.4920   -0.5347    0.0000 C   0  0  0  0  0  0  0  0  0  0  0  0
    2.8660    0.0000    0.0000 C   0  0  0  0  0  0  0  0  0  0  0  0
    2.8660    1.0000    0.0000 C   0  0  0  0  0  0  0  0  0  0  0  0
    6.3981   -0.0208    0.0000 C   0  0  0  0  0  0  0  0  0  0  0  0
    6.3981    1.0208    0.0000 C   0  0  0  0  0  0  0  0  0  0  0  0
    3.7320   -1.1200    0.0000 H   0  0  0  0  0  0  0  0  0  0  0  0
    3.7320    2.1200    0.0000 H   0  0  0  0  0  0  0  0  0  0  0  0
    6.9338   -0.3329    0.0000 H   0  0  0  0  0  0  0  0  0  0  0  0
    6.9338    1.3328    0.0000 H   0  0  0  0  0  0  0  0  0  0  0  0
  1  9  1  0  0  0  0
  2 10  1  0  0  0  0
  3 11  1  0  0  0  0
  4  6  2  0  0  0  0
  4 13  1  0  0  0  0
  5  6  1  0  0  0  0
  5  7  1  0  0  0  0
  5  9  2  0  0  0  0
  6  8  1  0  0  0  0
  7 10  2  0  0  0  0
  7 14  1  0  0  0  0
  8 11  2  0  0  0  0
  8 15  1  0  0  0  0
  9 12  1  0  0  0  0
 10 11  1  0  0  0  0
 12 13  2  0  0  0  0
 12 16  1  0  0  0  0
 13 17  1  0  0  0  0
M  END
> <PUBCHEM_COMPOUND_CID>
17039832

> <PUBCHEM_COMPOUND_CANONICALIZED>
1

> <PUBCHEM_CACTVS_COMPLEXITY>
188

> <PUBCHEM_CACTVS_HBOND_ACCEPTOR>
1

> <PUBCHEM_CACTVS_HBOND_DONOR>
0

> <PUBCHEM_CACTVS_ROTATABLE_BOND>
0

> <PUBCHEM_CACTVS_SUBSKEYS>
AAADcYByAAAGAAAAAAAAAAAAAAAAAAAAAAA8QAAAAAAAAACx8AAAHAIAAAAADArBHiQ8wPIIEACgAzRnRACCgCAxByAI2mA4ZpgIIOLBkpGEIAhggADIyAcQgIAOBABAIAICAAQIAIBABAQACAAAAAAAAA==

> <PUBCHEM_IUPAC_OPENEYE_NAME>
4,6,7-trichloroquinoline

> <PUBCHEM_IUPAC_CAS_NAME>
4,6,7-trichloroquinoline

> <PUBCHEM_IUPAC_NAME>
4,6,7-trichloroquinoline

> <PUBCHEM_IUPAC_SYSTEMATIC_NAME>
4,6,7-tris(chloranyl)quinoline

> <PUBCHEM_IUPAC_TRADITIONAL_NAME>
4,6,7-trichloroquinoline

> <PUBCHEM_IUPAC_INCHI>
InChI=1S/C9H4Cl3N/c10-6-1-2-13-9-4-8(12)7(11)3-5(6)9/h1-4H

> <PUBCHEM_IUPAC_INCHIKEY>
KGNQNRPJCCCDPE-UHFFFAOYSA-N

> <PUBCHEM_XLOGP3>
4.2

> <PUBCHEM_EXACT_MASS>
230.940932

> <PUBCHEM_MOLECULAR_FORMULA>
C9H4Cl3N

> <PUBCHEM_MOLECULAR_WEIGHT>
232.49376

> <PUBCHEM_OPENEYE_CAN_SMILES>
C1=CN=C2C=C(C(=CC2=C1Cl)Cl)Cl

> <PUBCHEM_OPENEYE_ISO_SMILES>
C1=CN=C2C=C(C(=CC2=C1Cl)Cl)Cl

> <PUBCHEM_CACTVS_TPSA>
12.9

> <PUBCHEM_MONOISOTOPIC_WEIGHT>
230.940932

> <PUBCHEM_TOTAL_CHARGE>
0

> <PUBCHEM_HEAVY_ATOM_COUNT>
13

> <PUBCHEM_ATOM_DEF_STEREO_COUNT>
0

> <PUBCHEM_ATOM_UDEF_STEREO_COUNT>
0

> <PUBCHEM_BOND_DEF_STEREO_COUNT>
0

> <PUBCHEM_BOND_UDEF_STEREO_COUNT>
0

> <PUBCHEM_ISOTOPIC_ATOM_COUNT>
0

> <PUBCHEM_COMPONENT_COUNT>
1

> <PUBCHEM_CACTVS_TAUTO_COUNT>
1

> <PUBCHEM_COORDINATE_TYPE>
1
5
255

> <PUBCHEM_BONDANNOTATIONS>
10  11  8
12  13  8
4  13  8
4  6  8
5  6  8
5  7  8
5  9  8
6  8  8
7  10  8
8  11  8
9  12  8

$$$$
17039975
  -OEChem-05181307582D

 19 20  0     0  0  0  0  0  0999 V2000
    3.7320    2.1754    0.0000 Cl  0  0  0  0  0  0  0  0  0  0  0  0
    2.0000   -0.8246    0.0000 Cl  0  0  0  0  0  0  0  0  0  0  0  0
    5.4804   -1.8592    0.0000 O   0  0  0  0  0  0  0  0  0  0  0  0
    4.5981   -0.3246    0.0000 C   0  0  0  0  0  0  0  0  0  0  0  0
    4.5981    0.6754    0.0000 C   0  0  0  0  0  0  0  0  0  0  0  0
    5.4920   -0.8593    0.0000 C   0  0  0  0  0  0  0  0  0  0  0  0
    3.7320   -0.8246    0.0000 C   0  0  0  0  0  0  0  0  0  0  0  0
    3.7320    1.1754    0.0000 C   0  0  0  0  0  0  0  0  0  0  0  0
    5.4920    1.2100    0.0000 C   0  0  0  0  0  0  0  0  0  0  0  0
    6.3981   -0.3454    0.0000 C   0  0  0  0  0  0  0  0  0  0  0  0
    2.8660   -0.3246    0.0000 C   0  0  0  0  0  0  0  0  0  0  0  0
    2.8660    0.6754    0.0000 C   0  0  0  0  0  0  0  0  0  0  0  0
    6.3981    0.6962    0.0000 C   0  0  0  0  0  0  0  0  0  0  0  0
    3.7320   -1.4446    0.0000 H   0  0  0  0  0  0  0  0  0  0  0  0
    5.4848    1.8300    0.0000 H   0  0  0  0  0  0  0  0  0  0  0  0
    6.9338   -0.6575    0.0000 H   0  0  0  0  0  0  0  0  0  0  0  0
    2.3291    0.9854    0.0000 H   0  0  0  0  0  0  0  0  0  0  0  0
    6.9338    1.0083    0.0000 H   0  0  0  0  0  0  0  0  0  0  0  0
    6.0138   -2.1754    0.0000 H   0  0  0  0  0  0  0  0  0  0  0  0
  1  8  1  0  0  0  0
  2 11  1  0  0  0  0
  3  6  1  0  0  0  0
  3 19  1  0  0  0  0
  4  5  2  0  0  0  0
  4  6  1  0  0  0  0
  4  7  1  0  0  0  0
  5  8  1  0  0  0  0
  5  9  1  0  0  0  0
  6 10  2  0  0  0  0
  7 11  2  0  0  0  0
  7 14  1  0  0  0  0
  8 12  2  0  0  0  0
  9 13  2  0  0  0  0
  9 15  1  0  0  0  0
 10 13  1  0  0  0  0
 10 16  1  0  0  0  0
 11 12  1  0  0  0  0
 12 17  1  0  0  0  0
 13 18  1  0  0  0  0
M  END
> <PUBCHEM_COMPOUND_CID>
17039975

> <PUBCHEM_COMPOUND_CANONICALIZED>
1

> <PUBCHEM_CACTVS_COMPLEXITY>
186

> <PUBCHEM_CACTVS_HBOND_ACCEPTOR>
1

> <PUBCHEM_CACTVS_HBOND_DONOR>
1

> <PUBCHEM_CACTVS_ROTATABLE_BOND>
0

> <PUBCHEM_CACTVS_SUBSKEYS>
AAADcYBwIAAGAAAAAAAAAAAAAAAAAAAAAAAwYAAAAAAAAADBUAAAGgIACAAADAaAmCAwBsAAAgCAAiBCAAACAAAgJQAIiAAGCogIJiKDExKAcAAkwBEImAeAwLAOhAABIACZAAAIAAJAATIAAAAAAAAAAA==

> <PUBCHEM_IUPAC_OPENEYE_NAME>
5,7-dichloronaphthalen-1-ol

> <PUBCHEM_IUPAC_CAS_NAME>
5,7-dichloro-1-naphthalenol

> <PUBCHEM_IUPAC_NAME>
5,7-dichloronaphthalen-1-ol

> <PUBCHEM_IUPAC_SYSTEMATIC_NAME>
5,7-bis(chloranyl)naphthalen-1-ol

> <PUBCHEM_IUPAC_TRADITIONAL_NAME>
5,7-dichloro-1-naphthol

> <PUBCHEM_IUPAC_INCHI>
InChI=1S/C10H6Cl2O/c11-6-4-8-7(9(12)5-6)2-1-3-10(8)13/h1-5,13H

> <PUBCHEM_IUPAC_INCHIKEY>
OCCYVEDEMVAAAN-UHFFFAOYSA-N

> <PUBCHEM_XLOGP3>
4.6

> <PUBCHEM_EXACT_MASS>
211.97957

> <PUBCHEM_MOLECULAR_FORMULA>
C10H6Cl2O

> <PUBCHEM_MOLECULAR_WEIGHT>
213.06004

> <PUBCHEM_OPENEYE_CAN_SMILES>
C1=CC2=C(C=C(C=C2C(=C1)O)Cl)Cl

> <PUBCHEM_OPENEYE_ISO_SMILES>
C1=CC2=C(C=C(C=C2C(=C1)O)Cl)Cl

> <PUBCHEM_CACTVS_TPSA>
20.2

> <PUBCHEM_MONOISOTOPIC_WEIGHT>
211.97957

> <PUBCHEM_TOTAL_CHARGE>
0

> <PUBCHEM_HEAVY_ATOM_COUNT>
13

> <PUBCHEM_ATOM_DEF_STEREO_COUNT>
0

> <PUBCHEM_ATOM_UDEF_STEREO_COUNT>
0

> <PUBCHEM_BOND_DEF_STEREO_COUNT>
0

> <PUBCHEM_BOND_UDEF_STEREO_COUNT>
0

> <PUBCHEM_ISOTOPIC_ATOM_COUNT>
0

> <PUBCHEM_COMPONENT_COUNT>
1

> <PUBCHEM_CACTVS_TAUTO_COUNT>
2

> <PUBCHEM_COORDINATE_TYPE>
1
5
255

> <PUBCHEM_BONDANNOTATIONS>
10  13  8
11  12  8
4  5  8
4  6  8
4  7  8
5  8  8
5  9  8
6  10  8
7  11  8
8  12  8
9  13  8

$$$$
17040073
  -OEChem-05181307582D

 17 18  0     0  0  0  0  0  0999 V2000
    2.8660    2.0173    0.0000 Br  0  0  0  0  0  0  0  0  0  0  0  0
    4.6144   -2.0173    0.0000 Cl  0  0  0  0  0  0  0  0  0  0  0  0
    2.8660   -0.9827    0.0000 N   0  0  0  0  0  0  0  0  0  0  0  0
    3.7320    0.5173    0.0000 C   0  0  0  0  0  0  0  0  0  0  0  0
    3.7320   -0.4827    0.0000 C   0  0  0  0  0  0  0  0  0  0  0  0
    4.6260    1.0520    0.0000 C   0  0  0  0  0  0  0  0  0  0  0  0
    2.8660    1.0173    0.0000 C   0  0  0  0  0  0  0  0  0  0  0  0
    4.6260   -1.0174    0.0000 C   0  0  0  0  0  0  0  0  0  0  0  0
    5.5321    0.5381    0.0000 C   0  0  0  0  0  0  0  0  0  0  0  0
    5.5321   -0.5035    0.0000 C   0  0  0  0  0  0  0  0  0  0  0  0
    2.0000    0.5173    0.0000 C   0  0  0  0  0  0  0  0  0  0  0  0
    2.0000   -0.4827    0.0000 C   0  0  0  0  0  0  0  0  0  0  0  0
    4.6188    1.6719    0.0000 H   0  0  0  0  0  0  0  0  0  0  0  0
    6.0678    0.8502    0.0000 H   0  0  0  0  0  0  0  0  0  0  0  0
    6.0678   -0.8156    0.0000 H   0  0  0  0  0  0  0  0  0  0  0  0
    1.4631    0.8273    0.0000 H   0  0  0  0  0  0  0  0  0  0  0  0
    1.4631   -0.7927    0.0000 H   0  0  0  0  0  0  0  0  0  0  0  0
  1  7  1  0  0  0  0
  2  8  1  0  0  0  0
  3  5  2  0  0  0  0
  3 12  1  0  0  0  0
  4  5  1  0  0  0  0
  4  6  1  0  0  0  0
  4  7  2  0  0  0  0
  5  8  1  0  0  0  0
  6  9  2  0  0  0  0
  6 13  1  0  0  0  0
  7 11  1  0  0  0  0
  8 10  2  0  0  0  0
  9 10  1  0  0  0  0
  9 14  1  0  0  0  0
 10 15  1  0  0  0  0
 11 12  2  0  0  0  0
 11 16  1  0  0  0  0
 12 17  1  0  0  0  0
M  END
> <PUBCHEM_COMPOUND_CID>
17040073

> <PUBCHEM_COMPOUND_CANONICALIZED>
1

> <PUBCHEM_CACTVS_COMPLEXITY>
165

> <PUBCHEM_CACTVS_HBOND_ACCEPTOR>
1

> <PUBCHEM_CACTVS_HBOND_DONOR>
0

> <PUBCHEM_CACTVS_ROTATABLE_BOND>
0

> <PUBCHEM_CACTVS_SUBSKEYS>
AAADcYByAAAEEAAAAAAAAAAAAAAAAAAAAAA8QAAAAAAAAACx8AAAHAJAAAABrArBHiQ8wPIIEACgAzRnRACCgCAxByQI2CA4ZrgIIOLBk5HEIAhggADIyhcQgIAOAAAAIAACABAAAABAAAQAIAAAAAAAAA==

> <PUBCHEM_IUPAC_OPENEYE_NAME>
4-bromo-8-chloro-quinoline

> <PUBCHEM_IUPAC_CAS_NAME>
4-bromo-8-chloroquinoline

> <PUBCHEM_IUPAC_NAME>
4-bromo-8-chloroquinoline

> <PUBCHEM_IUPAC_SYSTEMATIC_NAME>
4-bromanyl-8-chloranyl-quinoline

> <PUBCHEM_IUPAC_TRADITIONAL_NAME>
4-bromo-8-chloro-quinoline

> <PUBCHEM_IUPAC_INCHI>
InChI=1S/C9H5BrClN/c10-7-4-5-12-9-6(7)2-1-3-8(9)11/h1-5H

> <PUBCHEM_IUPAC_INCHIKEY>
IDHOUYADRURUHC-UHFFFAOYSA-N

> <PUBCHEM_XLOGP3>
3.7

> <PUBCHEM_EXACT_MASS>
240.929389

> <PUBCHEM_MOLECULAR_FORMULA>
C9H5BrClN

> <PUBCHEM_MOLECULAR_WEIGHT>
242.4997

> <PUBCHEM_OPENEYE_CAN_SMILES>
C1=CC2=C(C=CN=C2C(=C1)Cl)Br

> <PUBCHEM_OPENEYE_ISO_SMILES>
C1=CC2=C(C=CN=C2C(=C1)Cl)Br

> <PUBCHEM_CACTVS_TPSA>
12.9

> <PUBCHEM_MONOISOTOPIC_WEIGHT>
240.929389

> <PUBCHEM_TOTAL_CHARGE>
0

> <PUBCHEM_HEAVY_ATOM_COUNT>
12

> <PUBCHEM_ATOM_DEF_STEREO_COUNT>
0

> <PUBCHEM_ATOM_UDEF_STEREO_COUNT>
0

> <PUBCHEM_BOND_DEF_STEREO_COUNT>
0

> <PUBCHEM_BOND_UDEF_STEREO_COUNT>
0

> <PUBCHEM_ISOTOPIC_ATOM_COUNT>
0

> <PUBCHEM_COMPONENT_COUNT>
1

> <PUBCHEM_CACTVS_TAUTO_COUNT>
1

> <PUBCHEM_COORDINATE_TYPE>
1
5
255

> <PUBCHEM_BONDANNOTATIONS>
11  12  8
3  12  8
3  5  8
4  5  8
4  6  8
4  7  8
5  8  8
6  9  8
7  11  8
8  10  8
9  10  8

$$$$
