35024413
  -OEChem-06121304422D

 38 40  0     0  0  0  0  0  0999 V2000
    5.3181   -4.1498    0.0000 Cl  0  0  0  0  0  0  0  0  0  0  0  0
    7.2500   -3.6322    0.0000 Cl  0  0  0  0  0  0  0  0  0  0  0  0
    5.6463    0.4210    0.0000 S   0  0  0  0  0  0  0  0  0  0  0  0
    4.4909    2.8011    0.0000 N   0  3  0  0  0  0  0  0  0  0  0  0
    3.9732    0.8693    0.0000 N   0  0  0  0  0  0  0  0  0  0  0  0
    4.4215   -0.8037    0.0000 N   0  0  0  0  0  0  0  0  0  0  0  0
    4.2320    1.8352    0.0000 C   0  0  0  0  0  0  0  0  0  0  0  0
    3.2543    3.6498    0.0000 C   0  0  0  0  0  0  0  0  0  0  0  0
    2.5000    0.8352    0.0000 C   0  0  0  0  0  0  0  0  0  0  0  0
    6.0640    1.0764    0.0000 C   0  0  0  0  0  0  0  0  0  0  0  0
    4.1203    4.1498    0.0000 C   0  0  0  0  0  0  0  0  0  0  0  0
    2.0000    1.7012    0.0000 C   0  0  0  0  0  0  0  0  0  0  0  0
    6.3228    2.0423    0.0000 C   0  0  0  0  0  0  0  0  0  0  0  0
    4.6803    0.1622    0.0000 C   0  0  0  0  0  0  0  0  0  0  0  0
    5.1286   -1.5108    0.0000 C   0  0  0  0  0  0  0  0  0  0  0  0
    4.8698   -2.4768    0.0000 C   0  0  0  0  0  0  0  0  0  0  0  0
    6.0946   -1.2520    0.0000 C   0  0  0  0  0  0  0  0  0  0  0  0
    5.5769   -3.1839    0.0000 C   0  0  0  0  0  0  0  0  0  0  0  0
    6.8017   -1.9591    0.0000 C   0  0  0  0  0  0  0  0  0  0  0  0
    6.5428   -2.9250    0.0000 C   0  0  0  0  0  0  0  0  0  0  0  0
    4.6513    3.4000    0.0000 H   0  0  0  0  0  0  0  0  0  0  0  0
    2.9495    4.1897    0.0000 H   0  0  0  0  0  0  0  0  0  0  0  0
    2.7114    3.3504    0.0000 H   0  0  0  0  0  0  0  0  0  0  0  0
    1.9631    0.5252    0.0000 H   0  0  0  0  0  0  0  0  0  0  0  0
    2.8100    0.2983    0.0000 H   0  0  0  0  0  0  0  0  0  0  0  0
    5.8520    0.4938    0.0000 H   0  0  0  0  0  0  0  0  0  0  0  0
    6.6553    0.8900    0.0000 H   0  0  0  0  0  0  0  0  0  0  0  0
    4.7020    4.3643    0.0000 H   0  0  0  0  0  0  0  0  0  0  0  0
    3.8571    4.7112    0.0000 H   0  0  0  0  0  0  0  0  0  0  0  0
    1.7294    2.2591    0.0000 H   0  0  0  0  0  0  0  0  0  0  0  0
    1.4523    1.4107    0.0000 H   0  0  0  0  0  0  0  0  0  0  0  0
    6.9141    1.8559    0.0000 H   0  0  0  0  0  0  0  0  0  0  0  0
    6.5349    2.6250    0.0000 H   0  0  0  0  0  0  0  0  0  0  0  0
    3.3744    0.7088    0.0000 H   0  0  0  0  0  0  0  0  0  0  0  0
    3.8226   -0.9642    0.0000 H   0  0  0  0  0  0  0  0  0  0  0  0
    4.2709   -2.6372    0.0000 H   0  0  0  0  0  0  0  0  0  0  0  0
    6.2550   -0.6531    0.0000 H   0  0  0  0  0  0  0  0  0  0  0  0
    7.4005   -1.7987    0.0000 H   0  0  0  0  0  0  0  0  0  0  0  0
  1 18  1  0  0  0  0
  2 20  1  0  0  0  0
  3 14  2  0  0  0  0
  4 11  1  0  0  0  0
  4 12  1  0  0  0  0
  4 13  1  0  0  0  0
  4 21  1  0  0  0  0
  5  7  1  0  0  0  0
  5 14  1  0  0  0  0
  5 34  1  0  0  0  0
  6 14  1  0  0  0  0
  6 15  1  0  0  0  0
  6 35  1  0  0  0  0
  7  8  1  0  0  0  0
  7  9  1  0  0  0  0
  7 10  1  0  0  0  0
  8 11  1  0  0  0  0
  8 22  1  0  0  0  0
  8 23  1  0  0  0  0
  9 12  1  0  0  0  0
  9 24  1  0  0  0  0
  9 25  1  0  0  0  0
 10 13  1  0  0  0  0
 10 26  1  0  0  0  0
 10 27  1  0  0  0  0
 11 28  1  0  0  0  0
 11 29  1  0  0  0  0
 12 30  1  0  0  0  0
 12 31  1  0  0  0  0
 13 32  1  0  0  0  0
 13 33  1  0  0  0  0
 15 16  2  0  0  0  0
 15 17  1  0  0  0  0
 16 18  1  0  0  0  0
 16 36  1  0  0  0  0
 17 19  2  0  0  0  0
 17 37  1  0  0  0  0
 18 20  2  0  0  0  0
 19 20  1  0  0  0  0
 19 38  1  0  0  0  0
M  CHG  1   4   1
M  END
> <PUBCHEM_COMPOUND_CID>
35024413

> <PUBCHEM_COMPOUND_CANONICALIZED>
1

> <PUBCHEM_CACTVS_COMPLEXITY>
358

> <PUBCHEM_CACTVS_HBOND_ACCEPTOR>
1

> <PUBCHEM_CACTVS_HBOND_DONOR>
3

> <PUBCHEM_CACTVS_ROTATABLE_BOND>
2

> <PUBCHEM_CACTVS_SUBSKEYS>
AAADceBzAABGAAAAAAAAAAAAAAAAAAAAAAA8WLEAAAAAAAABAAAAHAYQAAAADIrBECQxwIPAAACEACRCQACCAAAhBwkIisAIZoiIICLB05GEIAhokALIyCcQAAAKAABAAAIAAAQAAIAABAAACAAAAAAAAA==

> <PUBCHEM_IUPAC_OPENEYE_NAME>
1-(3,4-dichlorophenyl)-3-quinuclidin-1-ium-4-yl-thiourea

> <PUBCHEM_IUPAC_CAS_NAME>
1-(1-azoniabicyclo[2.2.2]octan-4-yl)-3-(3,4-dichlorophenyl)thiourea

> <PUBCHEM_IUPAC_NAME>
1-(1-azoniabicyclo[2.2.2]octan-4-yl)-3-(3,4-dichlorophenyl)thiourea

> <PUBCHEM_IUPAC_SYSTEMATIC_NAME>
1-(1-azoniabicyclo[2.2.2]octan-4-yl)-3-(3,4-dichlorophenyl)thiourea

> <PUBCHEM_IUPAC_TRADITIONAL_NAME>
1-(3,4-dichlorophenyl)-3-quinuclidin-1-ium-4-yl-thiourea

> <PUBCHEM_IUPAC_INCHI>
InChI=1S/C14H17Cl2N3S/c15-11-2-1-10(9-12(11)16)17-13(20)18-14-3-6-19(7-4-14)8-5-14/h1-2,9H,3-8H2,(H2,17,18,20)/p+1

> <PUBCHEM_IUPAC_INCHIKEY>
SIBIIBYAOKAUHR-UHFFFAOYSA-O

> <PUBCHEM_XLOGP3>
4.1

> <PUBCHEM_EXACT_MASS>
330.059849

> <PUBCHEM_MOLECULAR_FORMULA>
C14H18Cl2N3S+

> <PUBCHEM_MOLECULAR_WEIGHT>
331.28382

> <PUBCHEM_OPENEYE_CAN_SMILES>
C1C[NH+]2CCC1(CC2)NC(=S)NC3=CC(=C(C=C3)Cl)Cl

> <PUBCHEM_OPENEYE_ISO_SMILES>
C1C[NH+]2CCC1(CC2)NC(=S)NC3=CC(=C(C=C3)Cl)Cl

> <PUBCHEM_CACTVS_TPSA>
60.6

> <PUBCHEM_MONOISOTOPIC_WEIGHT>
330.059849

> <PUBCHEM_TOTAL_CHARGE>
1

> <PUBCHEM_HEAVY_ATOM_COUNT>
20

> <PUBCHEM_ATOM_DEF_STEREO_COUNT>
0

> <PUBCHEM_ATOM_UDEF_STEREO_COUNT>
0

> <PUBCHEM_BOND_DEF_STEREO_COUNT>
0

> <PUBCHEM_BOND_UDEF_STEREO_COUNT>
0

> <PUBCHEM_ISOTOPIC_ATOM_COUNT>
0

> <PUBCHEM_COMPONENT_COUNT>
1

> <PUBCHEM_CACTVS_TAUTO_COUNT>
3

> <PUBCHEM_COORDINATE_TYPE>
1
5
255

> <PUBCHEM_BONDANNOTATIONS>
15  16  8
15  17  8
16  18  8
17  19  8
18  20  8
19  20  8

$$$$
