61578387
  -OEChem-11301218202D

 42 44  0     1  0  0  0  0  0999 V2000
    4.3211    1.0591    0.0000 O   0  0  0  0  0  0  0  0  0  0  0  0
    5.9674    0.5210    0.0000 N   0  0  0  0  0  0  0  0  0  0  0  0
    4.6783   -2.2452    0.0000 N   0  0  0  0  0  0  0  0  0  0  0  0
    7.2566    1.6778    0.0000 C   0  0  3  0  0  0  0  0  0  0  0  0
    7.9244    0.9335    0.0000 C   0  0  3  0  0  0  0  0  0  0  0  0
    7.5673    2.6283    0.0000 C   0  0  0  0  0  0  0  0  0  0  0  0
    8.9030    1.1397    0.0000 C   0  0  0  0  0  0  0  0  0  0  0  0
    8.5458    2.8345    0.0000 C   0  0  0  0  0  0  0  0  0  0  0  0
    9.2136    2.0902    0.0000 C   0  0  0  0  0  0  0  0  0  0  0  0
    6.2781    1.4715    0.0000 C   0  0  0  0  0  0  0  0  0  0  0  0
    7.6138   -0.0171    0.0000 C   0  0  0  0  0  0  0  0  0  0  0  0
    4.9889    0.3148    0.0000 C   0  0  0  0  0  0  0  0  0  0  0  0
    4.6783   -0.6357    0.0000 C   0  0  0  0  0  0  0  0  0  0  0  0
    3.7320   -0.9404    0.0000 C   0  0  0  0  0  0  0  0  0  0  0  0
    3.7320   -1.9404    0.0000 C   0  0  0  0  0  0  0  0  0  0  0  0
    5.2619   -1.4404    0.0000 C   0  0  0  0  0  0  0  0  0  0  0  0
    2.8660   -0.4404    0.0000 C   0  0  0  0  0  0  0  0  0  0  0  0
    2.8660   -2.4404    0.0000 C   0  0  0  0  0  0  0  0  0  0  0  0
    2.0000   -0.9404    0.0000 C   0  0  0  0  0  0  0  0  0  0  0  0
    2.0000   -1.9404    0.0000 C   0  0  0  0  0  0  0  0  0  0  0  0
    7.0640    1.0884    0.0000 H   0  0  0  0  0  0  0  0  0  0  0  0
    8.3385    0.4720    0.0000 H   0  0  0  0  0  0  0  0  0  0  0  0
    7.5467    3.2479    0.0000 H   0  0  0  0  0  0  0  0  0  0  0  0
    6.9534    2.7156    0.0000 H   0  0  0  0  0  0  0  0  0  0  0  0
    8.9235    0.5200    0.0000 H   0  0  0  0  0  0  0  0  0  0  0  0
    9.5168    1.0523    0.0000 H   0  0  0  0  0  0  0  0  0  0  0  0
    9.0721    3.1621    0.0000 H   0  0  0  0  0  0  0  0  0  0  0  0
    8.3145    3.4098    0.0000 H   0  0  0  0  0  0  0  0  0  0  0  0
    9.7605    1.7982    0.0000 H   0  0  0  0  0  0  0  0  0  0  0  0
    9.5962    2.5781    0.0000 H   0  0  0  0  0  0  0  0  0  0  0  0
    6.2575    2.0912    0.0000 H   0  0  0  0  0  0  0  0  0  0  0  0
    5.6643    1.5589    0.0000 H   0  0  0  0  0  0  0  0  0  0  0  0
    7.0245    0.1756    0.0000 H   0  0  0  0  0  0  0  0  0  0  0  0
    7.4212   -0.6064    0.0000 H   0  0  0  0  0  0  0  0  0  0  0  0
    8.2031   -0.2097    0.0000 H   0  0  0  0  0  0  0  0  0  0  0  0
    6.3815    0.0596    0.0000 H   0  0  0  0  0  0  0  0  0  0  0  0
    5.8819   -1.4404    0.0000 H   0  0  0  0  0  0  0  0  0  0  0  0
    4.8709   -2.8345    0.0000 H   0  0  0  0  0  0  0  0  0  0  0  0
    2.8660    0.1796    0.0000 H   0  0  0  0  0  0  0  0  0  0  0  0
    2.8660   -3.0604    0.0000 H   0  0  0  0  0  0  0  0  0  0  0  0
    1.4631   -0.6304    0.0000 H   0  0  0  0  0  0  0  0  0  0  0  0
    1.4631   -2.2504    0.0000 H   0  0  0  0  0  0  0  0  0  0  0  0
  1 12  2  0  0  0  0
  2 10  1  0  0  0  0
  2 12  1  0  0  0  0
  2 36  1  0  0  0  0
  3 15  1  0  0  0  0
  3 16  1  0  0  0  0
  3 38  1  0  0  0  0
  4  5  1  0  0  0  0
  4  6  1  0  0  0  0
  4 10  1  0  0  0  0
  4 21  1  0  0  0  0
  5  7  1  0  0  0  0
  5 11  1  0  0  0  0
  5 22  1  0  0  0  0
  6  8  1  0  0  0  0
  6 23  1  0  0  0  0
  6 24  1  0  0  0  0
  7  9  1  0  0  0  0
  7 25  1  0  0  0  0
  7 26  1  0  0  0  0
  8  9  1  0  0  0  0
  8 27  1  0  0  0  0
  8 28  1  0  0  0  0
  9 29  1  0  0  0  0
  9 30  1  0  0  0  0
 10 31  1  0  0  0  0
 10 32  1  0  0  0  0
 11 33  1  0  0  0  0
 11 34  1  0  0  0  0
 11 35  1  0  0  0  0
 12 13  1  0  0  0  0
 13 14  1  0  0  0  0
 13 16  2  0  0  0  0
 14 15  1  0  0  0  0
 14 17  2  0  0  0  0
 15 18  2  0  0  0  0
 16 37  1  0  0  0  0
 17 19  1  0  0  0  0
 17 39  1  0  0  0  0
 18 20  1  0  0  0  0
 18 40  1  0  0  0  0
 19 20  2  0  0  0  0
 19 41  1  0  0  0  0
 20 42  1  0  0  0  0
M  END
> <PUBCHEM_COMPOUND_CID>
61578387

> <PUBCHEM_COMPOUND_CANONICALIZED>
1

> <PUBCHEM_CACTVS_COMPLEXITY>
344

> <PUBCHEM_CACTVS_HBOND_ACCEPTOR>
1

> <PUBCHEM_CACTVS_HBOND_DONOR>
2

> <PUBCHEM_CACTVS_ROTATABLE_BOND>
3

> <PUBCHEM_CACTVS_SUBSKEYS>
AAADceB7IAAAAAAAAAAAAAAAAAAAAWAAAAAwYAAAAAAAAFgB8AAAHgAQAAAADQjBngQ+wPLJkACoAzV3VACCgCA1AiAI2aE4ZNgIIPrA1ZGEIYhglgDIyccciMCOgAAAAAACAAAAAAAAACQAAAAAAAAAAA==

> <PUBCHEM_IUPAC_OPENEYE_NAME>
N-[(2-methylcyclohexyl)methyl]-1H-indole-3-carboxamide

> <PUBCHEM_IUPAC_CAS_NAME>
N-[(2-methylcyclohexyl)methyl]-1H-indole-3-carboxamide

> <PUBCHEM_IUPAC_NAME>
N-[(2-methylcyclohexyl)methyl]-1H-indole-3-carboxamide

> <PUBCHEM_IUPAC_SYSTEMATIC_NAME>
N-[(2-methylcyclohexyl)methyl]-1H-indole-3-carboxamide

> <PUBCHEM_IUPAC_TRADITIONAL_NAME>
N-[(2-methylcyclohexyl)methyl]-1H-indole-3-carboxamide

> <PUBCHEM_IUPAC_INCHI>
InChI=1S/C17H22N2O/c1-12-6-2-3-7-13(12)10-19-17(20)15-11-18-16-9-5-4-8-14(15)16/h4-5,8-9,11-13,18H,2-3,6-7,10H2,1H3,(H,19,20)

> <PUBCHEM_IUPAC_INCHIKEY>
OCUUYUUIMJASLN-UHFFFAOYSA-N

> <PUBCHEM_XLOGP3>
4.5

> <PUBCHEM_EXACT_MASS>
270.173213

> <PUBCHEM_MOLECULAR_FORMULA>
C17H22N2O

> <PUBCHEM_MOLECULAR_WEIGHT>
270.36938

> <PUBCHEM_OPENEYE_CAN_SMILES>
CC1CCCCC1CNC(=O)C2=CNC3=CC=CC=C32

> <PUBCHEM_OPENEYE_ISO_SMILES>
CC1CCCCC1CNC(=O)C2=CNC3=CC=CC=C32

> <PUBCHEM_CACTVS_TPSA>
44.9

> <PUBCHEM_MONOISOTOPIC_WEIGHT>
270.173213

> <PUBCHEM_TOTAL_CHARGE>
0

> <PUBCHEM_HEAVY_ATOM_COUNT>
20

> <PUBCHEM_ATOM_DEF_STEREO_COUNT>
0

> <PUBCHEM_ATOM_UDEF_STEREO_COUNT>
2

> <PUBCHEM_BOND_DEF_STEREO_COUNT>
0

> <PUBCHEM_BOND_UDEF_STEREO_COUNT>
0

> <PUBCHEM_ISOTOPIC_ATOM_COUNT>
0

> <PUBCHEM_COMPONENT_COUNT>
1

> <PUBCHEM_CACTVS_TAUTO_COUNT>
5

> <PUBCHEM_COORDINATE_TYPE>
1
5
255

> <PUBCHEM_BONDANNOTATIONS>
13  14  8
13  16  8
14  15  8
14  17  8
15  18  8
17  19  8
18  20  8
19  20  8
3  15  8
3  16  8
4  10  3
5  11  3

$$$$
61580829
  -OEChem-11301218202D

 30 31  0     0  0  0  0  0  0999 V2000
    2.0000   -1.0173    0.0000 Cl  0  0  0  0  0  0  0  0  0  0  0  0
    9.8602    1.5068    0.0000 O   0  0  0  0  0  0  0  0  0  0  0  0
    7.1962    0.9827    0.0000 C   0  0  0  0  0  0  0  0  0  0  0  0
    7.1962   -0.0173    0.0000 C   0  0  0  0  0  0  0  0  0  0  0  0
    8.0901    1.5173    0.0000 C   0  0  0  0  0  0  0  0  0  0  0  0
    8.9962    1.0035    0.0000 C   0  0  0  0  0  0  0  0  0  0  0  0
    8.0901   -0.5520    0.0000 C   0  0  0  0  0  0  0  0  0  0  0  0
    6.3301   -0.5173    0.0000 C   0  0  0  0  0  0  0  0  0  0  0  0
    6.3301    1.4827    0.0000 C   0  0  0  0  0  0  0  0  0  0  0  0
    8.9962   -0.0381    0.0000 C   0  0  0  0  0  0  0  0  0  0  0  0
    5.4641   -0.0173    0.0000 C   0  0  0  0  0  0  0  0  0  0  0  0
    5.4641    0.9827    0.0000 C   0  0  0  0  0  0  0  0  0  0  0  0
   10.7282    1.0102    0.0000 C   0  0  0  0  0  0  0  0  0  0  0  0
   11.5923    1.5135    0.0000 C   0  0  0  0  0  0  0  0  0  0  0  0
    4.5981   -0.5173    0.0000 C   0  0  0  0  0  0  0  0  0  0  0  0
    3.7320   -1.0173    0.0000 C   0  0  0  0  0  0  0  0  0  0  0  0
    2.8660   -1.5173    0.0000 C   0  0  0  0  0  0  0  0  0  0  0  0
    8.0829    2.1373    0.0000 H   0  0  0  0  0  0  0  0  0  0  0  0
    8.0829   -1.1720    0.0000 H   0  0  0  0  0  0  0  0  0  0  0  0
    6.3301   -1.1373    0.0000 H   0  0  0  0  0  0  0  0  0  0  0  0
    6.3301    2.1027    0.0000 H   0  0  0  0  0  0  0  0  0  0  0  0
    9.5319   -0.3502    0.0000 H   0  0  0  0  0  0  0  0  0  0  0  0
    4.9272    1.2927    0.0000 H   0  0  0  0  0  0  0  0  0  0  0  0
   10.3315    0.5337    0.0000 H   0  0  0  0  0  0  0  0  0  0  0  0
   11.1286    0.5368    0.0000 H   0  0  0  0  0  0  0  0  0  0  0  0
   11.9044    0.9778    0.0000 H   0  0  0  0  0  0  0  0  0  0  0  0
   12.1280    1.8256    0.0000 H   0  0  0  0  0  0  0  0  0  0  0  0
   11.2802    2.0492    0.0000 H   0  0  0  0  0  0  0  0  0  0  0  0
    2.4675   -1.9923    0.0000 H   0  0  0  0  0  0  0  0  0  0  0  0
    3.2646   -1.9923    0.0000 H   0  0  0  0  0  0  0  0  0  0  0  0
  1 17  1  0  0  0  0
  2  6  1  0  0  0  0
  2 13  1  0  0  0  0
  3  4  2  0  0  0  0
  3  5  1  0  0  0  0
  3  9  1  0  0  0  0
  4  7  1  0  0  0  0
  4  8  1  0  0  0  0
  5  6  2  0  0  0  0
  5 18  1  0  0  0  0
  6 10  1  0  0  0  0
  7 10  2  0  0  0  0
  7 19  1  0  0  0  0
  8 11  2  0  0  0  0
  8 20  1  0  0  0  0
  9 12  2  0  0  0  0
  9 21  1  0  0  0  0
 10 22  1  0  0  0  0
 11 12  1  0  0  0  0
 11 15  1  0  0  0  0
 12 23  1  0  0  0  0
 13 14  1  0  0  0  0
 13 24  1  0  0  0  0
 13 25  1  0  0  0  0
 14 26  1  0  0  0  0
 14 27  1  0  0  0  0
 14 28  1  0  0  0  0
 15 16  3  0  0  0  0
 16 17  1  0  0  0  0
 17 29  1  0  0  0  0
 17 30  1  0  0  0  0
M  END
> <PUBCHEM_COMPOUND_CID>
61580829

> <PUBCHEM_COMPOUND_CANONICALIZED>
1

> <PUBCHEM_CACTVS_COMPLEXITY>
301

> <PUBCHEM_CACTVS_HBOND_ACCEPTOR>
1

> <PUBCHEM_CACTVS_HBOND_DONOR>
0

> <PUBCHEM_CACTVS_ROTATABLE_BOND>
3

> <PUBCHEM_CACTVS_SUBSKEYS>
AAADccBwIAAEAAAAAAAAAAAAAAAAAAAAAAAwYAAAAAAAAADBUAAAGgIAAAAADAegmEIyBsAABADAEiBCAAgCCAAgIAAIiAAGCIgMJiKEMRqCOCCkwBEIqAeAwPAO4AADAAAQAADAAAYAACAAAAAAAAAAAA==

> <PUBCHEM_IUPAC_OPENEYE_NAME>
2-(3-chloroprop-1-ynyl)-6-ethoxy-naphthalene

> <PUBCHEM_IUPAC_CAS_NAME>
2-(3-chloroprop-1-ynyl)-6-ethoxynaphthalene

> <PUBCHEM_IUPAC_NAME>
2-(3-chloroprop-1-ynyl)-6-ethoxynaphthalene

> <PUBCHEM_IUPAC_SYSTEMATIC_NAME>
2-(3-chloranylprop-1-ynyl)-6-ethoxy-naphthalene

> <PUBCHEM_IUPAC_TRADITIONAL_NAME>
2-(3-chloroprop-1-ynyl)-6-ethoxy-naphthalene

> <PUBCHEM_IUPAC_INCHI>
InChI=1S/C15H13ClO/c1-2-17-15-8-7-13-10-12(4-3-9-16)5-6-14(13)11-15/h5-8,10-11H,2,9H2,1H3

> <PUBCHEM_IUPAC_INCHIKEY>
SHOPATOBCRPBQT-UHFFFAOYSA-N

> <PUBCHEM_XLOGP3>
4.3

> <PUBCHEM_EXACT_MASS>
244.065493

> <PUBCHEM_MOLECULAR_FORMULA>
C15H13ClO

> <PUBCHEM_MOLECULAR_WEIGHT>
244.71612

> <PUBCHEM_OPENEYE_CAN_SMILES>
CCOC1=CC2=C(C=C1)C=C(C=C2)C#CCCl

> <PUBCHEM_OPENEYE_ISO_SMILES>
CCOC1=CC2=C(C=C1)C=C(C=C2)C#CCCl

> <PUBCHEM_CACTVS_TPSA>
9.2

> <PUBCHEM_MONOISOTOPIC_WEIGHT>
244.065493

> <PUBCHEM_TOTAL_CHARGE>
0

> <PUBCHEM_HEAVY_ATOM_COUNT>
17

> <PUBCHEM_ATOM_DEF_STEREO_COUNT>
0

> <PUBCHEM_ATOM_UDEF_STEREO_COUNT>
0

> <PUBCHEM_BOND_DEF_STEREO_COUNT>
0

> <PUBCHEM_BOND_UDEF_STEREO_COUNT>
0

> <PUBCHEM_ISOTOPIC_ATOM_COUNT>
0

> <PUBCHEM_COMPONENT_COUNT>
1

> <PUBCHEM_CACTVS_TAUTO_COUNT>
1

> <PUBCHEM_COORDINATE_TYPE>
1
5
255

> <PUBCHEM_BONDANNOTATIONS>
11  12  8
3  4  8
3  5  8
3  9  8
4  7  8
4  8  8
5  6  8
6  10  8
7  10  8
8  11  8
9  12  8

$$$$
61580860
  -OEChem-11301218202D

 27 28  0     0  0  0  0  0  0999 V2000
    2.0000   -1.0173    0.0000 Cl  0  0  0  0  0  0  0  0  0  0  0  0
    9.8602    1.5068    0.0000 O   0  0  0  0  0  0  0  0  0  0  0  0
    7.1962    0.9827    0.0000 C   0  0  0  0  0  0  0  0  0  0  0  0
    7.1962   -0.0173    0.0000 C   0  0  0  0  0  0  0  0  0  0  0  0
    8.0901    1.5173    0.0000 C   0  0  0  0  0  0  0  0  0  0  0  0
    6.3301   -0.5173    0.0000 C   0  0  0  0  0  0  0  0  0  0  0  0
    8.0901   -0.5520    0.0000 C   0  0  0  0  0  0  0  0  0  0  0  0
    6.3301    1.4827    0.0000 C   0  0  0  0  0  0  0  0  0  0  0  0
    8.9962    1.0035    0.0000 C   0  0  0  0  0  0  0  0  0  0  0  0
    5.4641   -0.0173    0.0000 C   0  0  0  0  0  0  0  0  0  0  0  0
    8.9962   -0.0381    0.0000 C   0  0  0  0  0  0  0  0  0  0  0  0
    5.4641    0.9827    0.0000 C   0  0  0  0  0  0  0  0  0  0  0  0
    4.5981   -0.5173    0.0000 C   0  0  0  0  0  0  0  0  0  0  0  0
   10.7282    1.0102    0.0000 C   0  0  0  0  0  0  0  0  0  0  0  0
    3.7320   -1.0173    0.0000 C   0  0  0  0  0  0  0  0  0  0  0  0
    2.8660   -1.5173    0.0000 C   0  0  0  0  0  0  0  0  0  0  0  0
    8.0829    2.1373    0.0000 H   0  0  0  0  0  0  0  0  0  0  0  0
    6.3301   -1.1373    0.0000 H   0  0  0  0  0  0  0  0  0  0  0  0
    8.0829   -1.1720    0.0000 H   0  0  0  0  0  0  0  0  0  0  0  0
    6.3301    2.1027    0.0000 H   0  0  0  0  0  0  0  0  0  0  0  0
    9.5319   -0.3502    0.0000 H   0  0  0  0  0  0  0  0  0  0  0  0
    4.9272    1.2927    0.0000 H   0  0  0  0  0  0  0  0  0  0  0  0
   10.4203    0.4720    0.0000 H   0  0  0  0  0  0  0  0  0  0  0  0
   11.2663    0.7022    0.0000 H   0  0  0  0  0  0  0  0  0  0  0  0
   11.0361    1.5483    0.0000 H   0  0  0  0  0  0  0  0  0  0  0  0
    2.4675   -1.9923    0.0000 H   0  0  0  0  0  0  0  0  0  0  0  0
    3.2646   -1.9923    0.0000 H   0  0  0  0  0  0  0  0  0  0  0  0
  1 16  1  0  0  0  0
  2  9  1  0  0  0  0
  2 14  1  0  0  0  0
  3  4  2  0  0  0  0
  3  5  1  0  0  0  0
  3  8  1  0  0  0  0
  4  6  1  0  0  0  0
  4  7  1  0  0  0  0
  5  9  2  0  0  0  0
  5 17  1  0  0  0  0
  6 10  2  0  0  0  0
  6 18  1  0  0  0  0
  7 11  2  0  0  0  0
  7 19  1  0  0  0  0
  8 12  2  0  0  0  0
  8 20  1  0  0  0  0
  9 11  1  0  0  0  0
 10 12  1  0  0  0  0
 10 13  1  0  0  0  0
 11 21  1  0  0  0  0
 12 22  1  0  0  0  0
 13 15  3  0  0  0  0
 14 23  1  0  0  0  0
 14 24  1  0  0  0  0
 14 25  1  0  0  0  0
 15 16  1  0  0  0  0
 16 26  1  0  0  0  0
 16 27  1  0  0  0  0
M  END
> <PUBCHEM_COMPOUND_CID>
61580860

> <PUBCHEM_COMPOUND_CANONICALIZED>
1

> <PUBCHEM_CACTVS_COMPLEXITY>
288

> <PUBCHEM_CACTVS_HBOND_ACCEPTOR>
1

> <PUBCHEM_CACTVS_HBOND_DONOR>
0

> <PUBCHEM_CACTVS_ROTATABLE_BOND>
2

> <PUBCHEM_CACTVS_SUBSKEYS>
AAADccBwIAAEAAAAAAAAAAAAAAAAAAAAAAAwYAAAAAAAAADBUAAAGgIAAAAADAeAmEIyBsAABADAEiBCAAgCCAAgIAAIiAAGCIgMJiKEMRqAMCAkwBEIqAeAwPAO4AADAAAQAADAAAYAACAAAAAAAAAAAA==

> <PUBCHEM_IUPAC_OPENEYE_NAME>
2-(3-chloroprop-1-ynyl)-6-methoxy-naphthalene

> <PUBCHEM_IUPAC_CAS_NAME>
2-(3-chloroprop-1-ynyl)-6-methoxynaphthalene

> <PUBCHEM_IUPAC_NAME>
2-(3-chloroprop-1-ynyl)-6-methoxynaphthalene

> <PUBCHEM_IUPAC_SYSTEMATIC_NAME>
2-(3-chloranylprop-1-ynyl)-6-methoxy-naphthalene

> <PUBCHEM_IUPAC_TRADITIONAL_NAME>
2-(3-chloroprop-1-ynyl)-6-methoxy-naphthalene

> <PUBCHEM_IUPAC_INCHI>
InChI=1S/C14H11ClO/c1-16-14-7-6-12-9-11(3-2-8-15)4-5-13(12)10-14/h4-7,9-10H,8H2,1H3

> <PUBCHEM_IUPAC_INCHIKEY>
QQBNWEWNGBEWBV-UHFFFAOYSA-N

> <PUBCHEM_XLOGP3>
3.9

> <PUBCHEM_EXACT_MASS>
230.049843

> <PUBCHEM_MOLECULAR_FORMULA>
C14H11ClO

> <PUBCHEM_MOLECULAR_WEIGHT>
230.68954

> <PUBCHEM_OPENEYE_CAN_SMILES>
COC1=CC2=C(C=C1)C=C(C=C2)C#CCCl

> <PUBCHEM_OPENEYE_ISO_SMILES>
COC1=CC2=C(C=C1)C=C(C=C2)C#CCCl

> <PUBCHEM_CACTVS_TPSA>
9.2

> <PUBCHEM_MONOISOTOPIC_WEIGHT>
230.049843

> <PUBCHEM_TOTAL_CHARGE>
0

> <PUBCHEM_HEAVY_ATOM_COUNT>
16

> <PUBCHEM_ATOM_DEF_STEREO_COUNT>
0

> <PUBCHEM_ATOM_UDEF_STEREO_COUNT>
0

> <PUBCHEM_BOND_DEF_STEREO_COUNT>
0

> <PUBCHEM_BOND_UDEF_STEREO_COUNT>
0

> <PUBCHEM_ISOTOPIC_ATOM_COUNT>
0

> <PUBCHEM_COMPONENT_COUNT>
1

> <PUBCHEM_CACTVS_TAUTO_COUNT>
1

> <PUBCHEM_COORDINATE_TYPE>
1
5
255

> <PUBCHEM_BONDANNOTATIONS>
10  12  8
3  4  8
3  5  8
3  8  8
4  6  8
4  7  8
5  9  8
6  10  8
7  11  8
8  12  8
9  11  8

$$$$
