47002930
  -OEChem-11301217572D

 20 20  0     0  0  0  0  0  0999 V2000
    2.0000   -3.0000    0.0000 Br  0  0  0  0  0  0  0  0  0  0  0  0
    5.4641    3.0000    0.0000 Cl  0  0  0  0  0  0  0  0  0  0  0  0
    6.3301    1.5000    0.0000 Cl  0  0  0  0  0  0  0  0  0  0  0  0
    2.8660    0.5000    0.0000 O   0  0  0  0  0  0  0  0  0  0  0  0
    4.5981    0.5000    0.0000 N   0  0  0  0  0  0  0  0  0  0  0  0
    3.7320   -1.0000    0.0000 C   0  0  0  0  0  0  0  0  0  0  0  0
    2.8660   -1.5000    0.0000 C   0  0  0  0  0  0  0  0  0  0  0  0
    4.5981   -1.5000    0.0000 C   0  0  0  0  0  0  0  0  0  0  0  0
    3.7320    0.0000    0.0000 C   0  0  0  0  0  0  0  0  0  0  0  0
    2.8660   -2.5000    0.0000 C   0  0  0  0  0  0  0  0  0  0  0  0
    4.5981   -2.5000    0.0000 C   0  0  0  0  0  0  0  0  0  0  0  0
    3.7320   -3.0000    0.0000 C   0  0  0  0  0  0  0  0  0  0  0  0
    4.5981    1.5000    0.0000 C   0  0  0  0  0  0  0  0  0  0  0  0
    5.4641    2.0000    0.0000 C   0  0  0  0  0  0  0  0  0  0  0  0
    2.3291   -1.1900    0.0000 H   0  0  0  0  0  0  0  0  0  0  0  0
    5.1350   -1.1900    0.0000 H   0  0  0  0  0  0  0  0  0  0  0  0
    5.1350   -2.8100    0.0000 H   0  0  0  0  0  0  0  0  0  0  0  0
    3.7320   -3.6200    0.0000 H   0  0  0  0  0  0  0  0  0  0  0  0
    5.1350    0.1900    0.0000 H   0  0  0  0  0  0  0  0  0  0  0  0
    4.0611    1.8100    0.0000 H   0  0  0  0  0  0  0  0  0  0  0  0
  1 10  1  0  0  0  0
  2 14  1  0  0  0  0
  3 14  1  0  0  0  0
  4  9  2  0  0  0  0
  5  9  1  0  0  0  0
  5 13  1  0  0  0  0
  5 19  1  0  0  0  0
  6  7  2  0  0  0  0
  6  8  1  0  0  0  0
  6  9  1  0  0  0  0
  7 10  1  0  0  0  0
  7 15  1  0  0  0  0
  8 11  2  0  0  0  0
  8 16  1  0  0  0  0
 10 12  2  0  0  0  0
 11 12  1  0  0  0  0
 11 17  1  0  0  0  0
 12 18  1  0  0  0  0
 13 14  2  0  0  0  0
 13 20  1  0  0  0  0
M  END
> <PUBCHEM_COMPOUND_CID>
47002930

> <PUBCHEM_COMPOUND_CANONICALIZED>
1

> <PUBCHEM_CACTVS_COMPLEXITY>
241

> <PUBCHEM_CACTVS_HBOND_ACCEPTOR>
1

> <PUBCHEM_CACTVS_HBOND_DONOR>
1

> <PUBCHEM_CACTVS_ROTATABLE_BOND>
2

> <PUBCHEM_CACTVS_SUBSKEYS>
AAADcYByIAAGEAAAAAAAAAAAAAAAAAAAAAAwAAAAAAAAAAABAAAAHgJQAAABrALBmIQwAILAAACIAiFWUACCAAAkAAQIiIEIBOgIIDKAlRGEIQhgggAIi5cYiACOAAAAEAAAAAAAAAAgAAAAAAAAAAAAAA==

> <PUBCHEM_IUPAC_OPENEYE_NAME>
3-bromo-N-(2,2-dichlorovinyl)benzamide

> <PUBCHEM_IUPAC_CAS_NAME>
3-bromo-N-(2,2-dichloroethenyl)benzamide

> <PUBCHEM_IUPAC_NAME>
3-bromo-N-(2,2-dichloroethenyl)benzamide

> <PUBCHEM_IUPAC_SYSTEMATIC_NAME>
N-[2,2-bis(chloranyl)ethenyl]-3-bromanyl-benzamide

> <PUBCHEM_IUPAC_TRADITIONAL_NAME>
3-bromo-N-(2,2-dichlorovinyl)benzamide

> <PUBCHEM_IUPAC_INCHI>
InChI=1S/C9H6BrCl2NO/c10-7-3-1-2-6(4-7)9(14)13-5-8(11)12/h1-5H,(H,13,14)

> <PUBCHEM_IUPAC_INCHIKEY>
UXMWWSHTNVXQBW-UHFFFAOYSA-N

> <PUBCHEM_XLOGP3>
3.6

> <PUBCHEM_EXACT_MASS>
292.900981

> <PUBCHEM_MOLECULAR_FORMULA>
C9H6BrCl2NO

> <PUBCHEM_MOLECULAR_WEIGHT>
294.96004

> <PUBCHEM_OPENEYE_CAN_SMILES>
C1=CC(=CC(=C1)Br)C(=O)NC=C(Cl)Cl

> <PUBCHEM_OPENEYE_ISO_SMILES>
C1=CC(=CC(=C1)Br)C(=O)NC=C(Cl)Cl

> <PUBCHEM_CACTVS_TPSA>
29.1

> <PUBCHEM_MONOISOTOPIC_WEIGHT>
292.900981

> <PUBCHEM_TOTAL_CHARGE>
0

> <PUBCHEM_HEAVY_ATOM_COUNT>
14

> <PUBCHEM_ATOM_DEF_STEREO_COUNT>
0

> <PUBCHEM_ATOM_UDEF_STEREO_COUNT>
0

> <PUBCHEM_BOND_DEF_STEREO_COUNT>
0

> <PUBCHEM_BOND_UDEF_STEREO_COUNT>
0

> <PUBCHEM_ISOTOPIC_ATOM_COUNT>
0

> <PUBCHEM_COMPONENT_COUNT>
1

> <PUBCHEM_CACTVS_TAUTO_COUNT>
2

> <PUBCHEM_COORDINATE_TYPE>
1
5
255

> <PUBCHEM_BONDANNOTATIONS>
10  12  8
11  12  8
6  7  8
6  8  8
7  10  8
8  11  8

$$$$
47003349
  -OEChem-11301217572D

 21 22  0     1  0  0  0  0  0999 V2000
    2.0000    0.8030    0.0000 Br  0  0  0  0  0  0  0  0  0  0  0  0
    7.6279   -1.0630    0.0000 Cl  0  0  0  0  0  0  0  0  0  0  0  0
    5.5443    0.6077    0.0000 N   0  0  0  0  0  0  0  0  0  0  0  0
    5.5443   -1.0018    0.0000 N   0  0  0  0  0  0  0  0  0  0  0  0
    6.1279   -0.1970    0.0000 C   0  0  0  0  0  0  0  0  0  0  0  0
    4.5981    0.3030    0.0000 C   0  0  0  0  0  0  0  0  0  0  0  0
    4.5981   -0.6970    0.0000 C   0  0  0  0  0  0  0  0  0  0  0  0
    7.1279   -0.1970    0.0000 C   0  0  3  0  0  0  0  0  0  0  0  0
    3.7320    0.8030    0.0000 C   0  0  0  0  0  0  0  0  0  0  0  0
    3.7320   -1.1970    0.0000 C   0  0  0  0  0  0  0  0  0  0  0  0
    7.6279    0.6690    0.0000 C   0  0  0  0  0  0  0  0  0  0  0  0
    2.8660    0.3030    0.0000 C   0  0  0  0  0  0  0  0  0  0  0  0
    2.8660   -0.6970    0.0000 C   0  0  0  0  0  0  0  0  0  0  0  0
    7.9779   -0.1970    0.0000 H   0  0  0  0  0  0  0  0  0  0  0  0
    5.7369    1.1970    0.0000 H   0  0  0  0  0  0  0  0  0  0  0  0
    3.7320    1.4230    0.0000 H   0  0  0  0  0  0  0  0  0  0  0  0
    3.7320   -1.8170    0.0000 H   0  0  0  0  0  0  0  0  0  0  0  0
    8.1648    0.3590    0.0000 H   0  0  0  0  0  0  0  0  0  0  0  0
    7.9379    1.2059    0.0000 H   0  0  0  0  0  0  0  0  0  0  0  0
    7.0910    0.9790    0.0000 H   0  0  0  0  0  0  0  0  0  0  0  0
    2.3291   -1.0070    0.0000 H   0  0  0  0  0  0  0  0  0  0  0  0
  1 12  1  0  0  0  0
  2  8  1  0  0  0  0
  3  5  1  0  0  0  0
  3  6  1  0  0  0  0
  3 15  1  0  0  0  0
  4  5  2  0  0  0  0
  4  7  1  0  0  0  0
  5  8  1  0  0  0  0
  6  7  2  0  0  0  0
  6  9  1  0  0  0  0
  7 10  1  0  0  0  0
  8 11  1  0  0  0  0
  8 14  1  0  0  0  0
  9 12  2  0  0  0  0
  9 16  1  0  0  0  0
 10 13  2  0  0  0  0
 10 17  1  0  0  0  0
 11 18  1  0  0  0  0
 11 19  1  0  0  0  0
 11 20  1  0  0  0  0
 12 13  1  0  0  0  0
 13 21  1  0  0  0  0
M  END
> <PUBCHEM_COMPOUND_CID>
47003349

> <PUBCHEM_COMPOUND_CANONICALIZED>
1

> <PUBCHEM_CACTVS_COMPLEXITY>
191

> <PUBCHEM_CACTVS_HBOND_ACCEPTOR>
1

> <PUBCHEM_CACTVS_HBOND_DONOR>
1

> <PUBCHEM_CACTVS_ROTATABLE_BOND>
1

> <PUBCHEM_CACTVS_SUBSKEYS>
AAADccBzAAAEEAAAAAAAAAAAAAAAAWAAAAAwAAAAAAAAAFgB8AAAHAJQAAABqAuBF0Az0LbJkACgASZiZACCgC2hEqQJmSAwdLiIaKLAmZHUIAhokALIyjcQAAAAAAAgAAEAACAAAEAAAgAAQAAAAAAAAA==

> <PUBCHEM_IUPAC_OPENEYE_NAME>
6-bromo-2-(1-chloroethyl)-1H-benzimidazole

> <PUBCHEM_IUPAC_CAS_NAME>
6-bromo-2-(1-chloroethyl)-1H-benzimidazole

> <PUBCHEM_IUPAC_NAME>
6-bromo-2-(1-chloroethyl)-1H-benzimidazole

> <PUBCHEM_IUPAC_SYSTEMATIC_NAME>
6-bromanyl-2-(1-chloroethyl)-1H-benzimidazole

> <PUBCHEM_IUPAC_TRADITIONAL_NAME>
6-bromo-2-(1-chloroethyl)-1H-benzimidazole

> <PUBCHEM_IUPAC_INCHI>
InChI=1S/C9H8BrClN2/c1-5(11)9-12-7-3-2-6(10)4-8(7)13-9/h2-5H,1H3,(H,12,13)

> <PUBCHEM_IUPAC_INCHIKEY>
AWWOWLNIAXVUIY-UHFFFAOYSA-N

> <PUBCHEM_XLOGP3>
3.5

> <PUBCHEM_EXACT_MASS>
257.955938

> <PUBCHEM_MOLECULAR_FORMULA>
C9H8BrClN2

> <PUBCHEM_MOLECULAR_WEIGHT>
259.53022

> <PUBCHEM_OPENEYE_CAN_SMILES>
CC(C1=NC2=C(N1)C=C(C=C2)Br)Cl

> <PUBCHEM_OPENEYE_ISO_SMILES>
CC(C1=NC2=C(N1)C=C(C=C2)Br)Cl

> <PUBCHEM_CACTVS_TPSA>
28.7

> <PUBCHEM_MONOISOTOPIC_WEIGHT>
257.955938

> <PUBCHEM_TOTAL_CHARGE>
0

> <PUBCHEM_HEAVY_ATOM_COUNT>
13

> <PUBCHEM_ATOM_DEF_STEREO_COUNT>
0

> <PUBCHEM_ATOM_UDEF_STEREO_COUNT>
1

> <PUBCHEM_BOND_DEF_STEREO_COUNT>
0

> <PUBCHEM_BOND_UDEF_STEREO_COUNT>
0

> <PUBCHEM_ISOTOPIC_ATOM_COUNT>
0

> <PUBCHEM_COMPONENT_COUNT>
1

> <PUBCHEM_CACTVS_TAUTO_COUNT>
2

> <PUBCHEM_COORDINATE_TYPE>
1
5
255

> <PUBCHEM_BONDANNOTATIONS>
10  13  8
12  13  8
3  5  8
3  6  8
4  5  8
4  7  8
6  7  8
6  9  8
7  10  8
8  14  3
9  12  8

$$$$
47003447
  -OEChem-11301217572D

 22 23  0     0  0  0  0  0  0999 V2000
    2.0000    1.0000    0.0000 Br  0  0  0  0  0  0  0  0  0  0  0  0
    7.1279    0.0000    0.0000 O   0  0  0  0  0  0  0  0  0  0  0  0
    5.5443    0.8047    0.0000 N   0  0  0  0  0  0  0  0  0  0  0  0
    5.5443   -0.8047    0.0000 N   0  0  0  0  0  0  0  0  0  0  0  0
    4.5981    0.5000    0.0000 C   0  0  0  0  0  0  0  0  0  0  0  0
    4.5981   -0.5000    0.0000 C   0  0  0  0  0  0  0  0  0  0  0  0
    6.1279    0.0000    0.0000 C   0  0  0  0  0  0  0  0  0  0  0  0
    3.7320    1.0000    0.0000 C   0  0  0  0  0  0  0  0  0  0  0  0
    3.7320   -1.0000    0.0000 C   0  0  0  0  0  0  0  0  0  0  0  0
    5.8550    1.7552    0.0000 C   0  0  0  0  0  0  0  0  0  0  0  0
    5.8550   -1.7552    0.0000 C   0  0  0  0  0  0  0  0  0  0  0  0
    2.8660    0.5000    0.0000 C   0  0  0  0  0  0  0  0  0  0  0  0
    2.8660   -0.5000    0.0000 C   0  0  0  0  0  0  0  0  0  0  0  0
    3.7320    1.6200    0.0000 H   0  0  0  0  0  0  0  0  0  0  0  0
    3.7320   -1.6200    0.0000 H   0  0  0  0  0  0  0  0  0  0  0  0
    6.4443    1.5626    0.0000 H   0  0  0  0  0  0  0  0  0  0  0  0
    6.0476    2.3446    0.0000 H   0  0  0  0  0  0  0  0  0  0  0  0
    5.2656    1.9479    0.0000 H   0  0  0  0  0  0  0  0  0  0  0  0
    5.2656   -1.9479    0.0000 H   0  0  0  0  0  0  0  0  0  0  0  0
    6.0476   -2.3446    0.0000 H   0  0  0  0  0  0  0  0  0  0  0  0
    6.4443   -1.5626    0.0000 H   0  0  0  0  0  0  0  0  0  0  0  0
    2.3291   -0.8100    0.0000 H   0  0  0  0  0  0  0  0  0  0  0  0
  1 12  1  0  0  0  0
  2  7  2  0  0  0  0
  3  5  1  0  0  0  0
  3  7  1  0  0  0  0
  3 10  1  0  0  0  0
  4  6  1  0  0  0  0
  4  7  1  0  0  0  0
  4 11  1  0  0  0  0
  5  6  2  0  0  0  0
  5  8  1  0  0  0  0
  6  9  1  0  0  0  0
  8 12  2  0  0  0  0
  8 14  1  0  0  0  0
  9 13  2  0  0  0  0
  9 15  1  0  0  0  0
 10 16  1  0  0  0  0
 10 17  1  0  0  0  0
 10 18  1  0  0  0  0
 11 19  1  0  0  0  0
 11 20  1  0  0  0  0
 11 21  1  0  0  0  0
 12 13  1  0  0  0  0
 13 22  1  0  0  0  0
M  END
> <PUBCHEM_COMPOUND_CID>
47003447

> <PUBCHEM_COMPOUND_CANONICALIZED>
1

> <PUBCHEM_CACTVS_COMPLEXITY>
234

> <PUBCHEM_CACTVS_HBOND_ACCEPTOR>
1

> <PUBCHEM_CACTVS_HBOND_DONOR>
0

> <PUBCHEM_CACTVS_ROTATABLE_BOND>
0

> <PUBCHEM_CACTVS_SUBSKEYS>
AAADccBzIAAAEAAAAAAAAAAAAAAAAWAAAAAwAAAAAAAAAFgBAAAAHgBAAAABqAiBEAQzwIMAAACIACRCUACCAAAhAgQIiAAIdKiIYCLAkZGUIAhohgJIyjcQAAAAAAAgAAEAACAAAEAAAgAAQAAAAAAAAA==

> <PUBCHEM_IUPAC_OPENEYE_NAME>
5-bromo-1,3-dimethyl-benzimidazol-2-one

> <PUBCHEM_IUPAC_CAS_NAME>
5-bromo-1,3-dimethyl-2-benzimidazolone

> <PUBCHEM_IUPAC_NAME>
5-bromo-1,3-dimethylbenzimidazol-2-one

> <PUBCHEM_IUPAC_SYSTEMATIC_NAME>
5-bromanyl-1,3-dimethyl-benzimidazol-2-one

> <PUBCHEM_IUPAC_TRADITIONAL_NAME>
5-bromo-1,3-dimethyl-benzimidazol-2-one

> <PUBCHEM_IUPAC_INCHI>
InChI=1S/C9H9BrN2O/c1-11-7-4-3-6(10)5-8(7)12(2)9(11)13/h3-5H,1-2H3

> <PUBCHEM_IUPAC_INCHIKEY>
HFZWRJFAGBJEFX-UHFFFAOYSA-N

> <PUBCHEM_XLOGP3>
2.2

> <PUBCHEM_EXACT_MASS>
239.989825

> <PUBCHEM_MOLECULAR_FORMULA>
C9H9BrN2O

> <PUBCHEM_MOLECULAR_WEIGHT>
241.08456

> <PUBCHEM_OPENEYE_CAN_SMILES>
CN1C2=C(C=C(C=C2)Br)N(C1=O)C

> <PUBCHEM_OPENEYE_ISO_SMILES>
CN1C2=C(C=C(C=C2)Br)N(C1=O)C

> <PUBCHEM_CACTVS_TPSA>
23.6

> <PUBCHEM_MONOISOTOPIC_WEIGHT>
239.989825

> <PUBCHEM_TOTAL_CHARGE>
0

> <PUBCHEM_HEAVY_ATOM_COUNT>
13

> <PUBCHEM_ATOM_DEF_STEREO_COUNT>
0

> <PUBCHEM_ATOM_UDEF_STEREO_COUNT>
0

> <PUBCHEM_BOND_DEF_STEREO_COUNT>
0

> <PUBCHEM_BOND_UDEF_STEREO_COUNT>
0

> <PUBCHEM_ISOTOPIC_ATOM_COUNT>
0

> <PUBCHEM_COMPONENT_COUNT>
1

> <PUBCHEM_CACTVS_TAUTO_COUNT>
1

> <PUBCHEM_COORDINATE_TYPE>
1
5
255

> <PUBCHEM_BONDANNOTATIONS>
12  13  8
3  5  8
3  7  8
4  6  8
4  7  8
5  6  8
5  8  8
6  9  8
8  12  8
9  13  8

$$$$
47003659
  -OEChem-11301217572D

 36 37  0     0  0  0  0  0  0999 V2000
    3.7320    3.5950    0.0000 N   0  0  0  0  0  0  0  0  0  0  0  0
    5.4641   -0.4050    0.0000 C   0  0  0  0  0  0  0  0  0  0  0  0
    5.4641    0.5950    0.0000 C   0  0  0  0  0  0  0  0  0  0  0  0
    6.3301   -0.9050    0.0000 C   0  0  0  0  0  0  0  0  0  0  0  0
    4.5981    1.0950    0.0000 C   0  0  0  0  0  0  0  0  0  0  0  0
    6.3301   -1.9050    0.0000 C   0  0  0  0  0  0  0  0  0  0  0  0
    4.5981    2.0950    0.0000 C   0  0  0  0  0  0  0  0  0  0  0  0
    3.7320    0.5950    0.0000 C   0  0  0  0  0  0  0  0  0  0  0  0
    3.7320    2.5950    0.0000 C   0  0  0  0  0  0  0  0  0  0  0  0
    2.8660    2.0950    0.0000 C   0  0  0  0  0  0  0  0  0  0  0  0
    2.8660    1.0950    0.0000 C   0  0  0  0  0  0  0  0  0  0  0  0
    5.4641   -2.4050    0.0000 C   0  0  0  0  0  0  0  0  0  0  0  0
    7.1962   -2.4050    0.0000 C   0  0  0  0  0  0  0  0  0  0  0  0
    2.0000    2.5950    0.0000 C   0  0  0  0  0  0  0  0  0  0  0  0
    5.4641   -3.4050    0.0000 C   0  0  0  0  0  0  0  0  0  0  0  0
    7.1962   -3.4050    0.0000 C   0  0  0  0  0  0  0  0  0  0  0  0
    6.3301   -3.9050    0.0000 C   0  0  0  0  0  0  0  0  0  0  0  0
    4.8535   -0.2973    0.0000 H   0  0  0  0  0  0  0  0  0  0  0  0
    5.2520   -0.9876    0.0000 H   0  0  0  0  0  0  0  0  0  0  0  0
    6.0747    0.4873    0.0000 H   0  0  0  0  0  0  0  0  0  0  0  0
    5.6762    1.1776    0.0000 H   0  0  0  0  0  0  0  0  0  0  0  0
    6.9407   -1.0127    0.0000 H   0  0  0  0  0  0  0  0  0  0  0  0
    6.5422   -0.3224    0.0000 H   0  0  0  0  0  0  0  0  0  0  0  0
    5.1350    2.4050    0.0000 H   0  0  0  0  0  0  0  0  0  0  0  0
    3.7320   -0.0250    0.0000 H   0  0  0  0  0  0  0  0  0  0  0  0
    2.3291    0.7850    0.0000 H   0  0  0  0  0  0  0  0  0  0  0  0
    4.9272   -2.0950    0.0000 H   0  0  0  0  0  0  0  0  0  0  0  0
    7.7331   -2.0950    0.0000 H   0  0  0  0  0  0  0  0  0  0  0  0
    2.3100    3.1319    0.0000 H   0  0  0  0  0  0  0  0  0  0  0  0
    1.4631    2.9050    0.0000 H   0  0  0  0  0  0  0  0  0  0  0  0
    1.6900    2.0581    0.0000 H   0  0  0  0  0  0  0  0  0  0  0  0
    4.9272   -3.7150    0.0000 H   0  0  0  0  0  0  0  0  0  0  0  0
    7.7331   -3.7150    0.0000 H   0  0  0  0  0  0  0  0  0  0  0  0
    4.2690    3.9050    0.0000 H   0  0  0  0  0  0  0  0  0  0  0  0
    3.1951    3.9050    0.0000 H   0  0  0  0  0  0  0  0  0  0  0  0
    6.3301   -4.5250    0.0000 H   0  0  0  0  0  0  0  0  0  0  0  0
  1  9  1  0  0  0  0
  1 34  1  0  0  0  0
  1 35  1  0  0  0  0
  2  3  1  0  0  0  0
  2  4  1  0  0  0  0
  2 18  1  0  0  0  0
  2 19  1  0  0  0  0
  3  5  1  0  0  0  0
  3 20  1  0  0  0  0
  3 21  1  0  0  0  0
  4  6  1  0  0  0  0
  4 22  1  0  0  0  0
  4 23  1  0  0  0  0
  5  7  2  0  0  0  0
  5  8  1  0  0  0  0
  6 12  2  0  0  0  0
  6 13  1  0  0  0  0
  7  9  1  0  0  0  0
  7 24  1  0  0  0  0
  8 11  2  0  0  0  0
  8 25  1  0  0  0  0
  9 10  2  0  0  0  0
 10 11  1  0  0  0  0
 10 14  1  0  0  0  0
 11 26  1  0  0  0  0
 12 15  1  0  0  0  0
 12 27  1  0  0  0  0
 13 16  2  0  0  0  0
 13 28  1  0  0  0  0
 14 29  1  0  0  0  0
 14 30  1  0  0  0  0
 14 31  1  0  0  0  0
 15 17  2  0  0  0  0
 15 32  1  0  0  0  0
 16 17  1  0  0  0  0
 16 33  1  0  0  0  0
 17 36  1  0  0  0  0
M  END
> <PUBCHEM_COMPOUND_CID>
47003659

> <PUBCHEM_COMPOUND_CANONICALIZED>
1

> <PUBCHEM_CACTVS_COMPLEXITY>
208

> <PUBCHEM_CACTVS_HBOND_ACCEPTOR>
1

> <PUBCHEM_CACTVS_HBOND_DONOR>
1

> <PUBCHEM_CACTVS_ROTATABLE_BOND>
4

> <PUBCHEM_CACTVS_SUBSKEYS>
AAADceB6AAAAAAAAAAAAAAAAAAAAAAAAAAAwYAAAAAAAAAABQAAAHAAQAAAADAiBGAAywIBAAACAAiRCQACCAAAgAgAIiAAAZIgIICKAkZGAIABgkAAIyAcQgMAOQAAAQAACAACAAACAAAQAAAAAAAAAAA==

> <PUBCHEM_IUPAC_OPENEYE_NAME>
2-methyl-5-(3-phenylpropyl)aniline

> <PUBCHEM_IUPAC_CAS_NAME>
2-methyl-5-(3-phenylpropyl)aniline

> <PUBCHEM_IUPAC_NAME>
2-methyl-5-(3-phenylpropyl)aniline

> <PUBCHEM_IUPAC_SYSTEMATIC_NAME>
2-methyl-5-(3-phenylpropyl)aniline

> <PUBCHEM_IUPAC_TRADITIONAL_NAME>
[2-methyl-5-(3-phenylpropyl)phenyl]amine

> <PUBCHEM_IUPAC_INCHI>
InChI=1S/C16H19N/c1-13-10-11-15(12-16(13)17)9-5-8-14-6-3-2-4-7-14/h2-4,6-7,10-12H,5,8-9,17H2,1H3

> <PUBCHEM_IUPAC_INCHIKEY>
JWDAUFGOKSPTAY-UHFFFAOYSA-N

> <PUBCHEM_XLOGP3>
4.2

> <PUBCHEM_EXACT_MASS>
225.15175

> <PUBCHEM_MOLECULAR_FORMULA>
C16H19N

> <PUBCHEM_MOLECULAR_WEIGHT>
225.32876

> <PUBCHEM_OPENEYE_CAN_SMILES>
CC1=C(C=C(C=C1)CCCC2=CC=CC=C2)N

> <PUBCHEM_OPENEYE_ISO_SMILES>
CC1=C(C=C(C=C1)CCCC2=CC=CC=C2)N

> <PUBCHEM_CACTVS_TPSA>
26

> <PUBCHEM_MONOISOTOPIC_WEIGHT>
225.15175

> <PUBCHEM_TOTAL_CHARGE>
0

> <PUBCHEM_HEAVY_ATOM_COUNT>
17

> <PUBCHEM_ATOM_DEF_STEREO_COUNT>
0

> <PUBCHEM_ATOM_UDEF_STEREO_COUNT>
0

> <PUBCHEM_BOND_DEF_STEREO_COUNT>
0

> <PUBCHEM_BOND_UDEF_STEREO_COUNT>
0

> <PUBCHEM_ISOTOPIC_ATOM_COUNT>
0

> <PUBCHEM_COMPONENT_COUNT>
1

> <PUBCHEM_CACTVS_TAUTO_COUNT>
1

> <PUBCHEM_COORDINATE_TYPE>
1
5
255

> <PUBCHEM_BONDANNOTATIONS>
10  11  8
12  15  8
13  16  8
15  17  8
16  17  8
5  7  8
5  8  8
6  12  8
6  13  8
7  9  8
8  11  8
9  10  8

$$$$
47004459
  -OEChem-11301217572D

 40 42  0     1  0  0  0  0  0999 V2000
    7.1962   -0.2500    0.0000 O   0  0  0  0  0  0  0  0  0  0  0  0
    5.4641   -0.2500    0.0000 N   0  0  0  0  0  0  0  0  0  0  0  0
    6.3301    1.2500    0.0000 C   0  0  3  0  0  0  0  0  0  0  0  0
    7.1962    1.7500    0.0000 C   0  0  0  0  0  0  0  0  0  0  0  0
    5.4641    1.7500    0.0000 C   0  0  0  0  0  0  0  0  0  0  0  0
    7.1962    2.7500    0.0000 C   0  0  0  0  0  0  0  0  0  0  0  0
    6.3301    0.2500    0.0000 C   0  0  0  0  0  0  0  0  0  0  0  0
    5.4641    2.7500    0.0000 C   0  0  0  0  0  0  0  0  0  0  0  0
    6.3301    3.2500    0.0000 C   0  0  0  0  0  0  0  0  0  0  0  0
    5.4641   -1.2500    0.0000 C   0  0  0  0  0  0  0  0  0  0  0  0
    4.5981   -1.7500    0.0000 C   0  0  0  0  0  0  0  0  0  0  0  0
    6.3301   -1.7500    0.0000 C   0  0  0  0  0  0  0  0  0  0  0  0
    3.7320   -1.2500    0.0000 C   0  0  0  0  0  0  0  0  0  0  0  0
    4.5981   -2.7500    0.0000 C   0  0  0  0  0  0  0  0  0  0  0  0
    6.3301   -2.7500    0.0000 C   0  0  0  0  0  0  0  0  0  0  0  0
    5.4641   -3.2500    0.0000 C   0  0  0  0  0  0  0  0  0  0  0  0
    3.7320   -0.2500    0.0000 C   0  0  0  0  0  0  0  0  0  0  0  0
    2.8660   -1.7500    0.0000 C   0  0  0  0  0  0  0  0  0  0  0  0
    2.8660    0.2500    0.0000 C   0  0  0  0  0  0  0  0  0  0  0  0
    2.0000   -1.2500    0.0000 C   0  0  0  0  0  0  0  0  0  0  0  0
    2.0000   -0.2500    0.0000 C   0  0  0  0  0  0  0  0  0  0  0  0
    6.8671    0.9400    0.0000 H   0  0  0  0  0  0  0  0  0  0  0  0
    7.4082    1.1674    0.0000 H   0  0  0  0  0  0  0  0  0  0  0  0
    7.8067    1.8577    0.0000 H   0  0  0  0  0  0  0  0  0  0  0  0
    4.8535    1.8577    0.0000 H   0  0  0  0  0  0  0  0  0  0  0  0
    5.2520    1.1674    0.0000 H   0  0  0  0  0  0  0  0  0  0  0  0
    7.8067    2.6423    0.0000 H   0  0  0  0  0  0  0  0  0  0  0  0
    7.4082    3.3326    0.0000 H   0  0  0  0  0  0  0  0  0  0  0  0
    4.9272    3.0600    0.0000 H   0  0  0  0  0  0  0  0  0  0  0  0
    6.3301    3.8700    0.0000 H   0  0  0  0  0  0  0  0  0  0  0  0
    4.9272    0.0600    0.0000 H   0  0  0  0  0  0  0  0  0  0  0  0
    6.8671   -1.4400    0.0000 H   0  0  0  0  0  0  0  0  0  0  0  0
    4.0611   -3.0600    0.0000 H   0  0  0  0  0  0  0  0  0  0  0  0
    6.8671   -3.0600    0.0000 H   0  0  0  0  0  0  0  0  0  0  0  0
    5.4641   -3.8700    0.0000 H   0  0  0  0  0  0  0  0  0  0  0  0
    4.2690    0.0600    0.0000 H   0  0  0  0  0  0  0  0  0  0  0  0
    2.8660   -2.3700    0.0000 H   0  0  0  0  0  0  0  0  0  0  0  0
    2.8660    0.8700    0.0000 H   0  0  0  0  0  0  0  0  0  0  0  0
    1.4631   -1.5600    0.0000 H   0  0  0  0  0  0  0  0  0  0  0  0
    1.4631    0.0600    0.0000 H   0  0  0  0  0  0  0  0  0  0  0  0
  1  7  2  0  0  0  0
  2  7  1  0  0  0  0
  2 10  1  0  0  0  0
  2 31  1  0  0  0  0
  3  4  1  0  0  0  0
  3  5  1  0  0  0  0
  3  7  1  0  0  0  0
  3 22  1  0  0  0  0
  4  6  1  0  0  0  0
  4 23  1  0  0  0  0
  4 24  1  0  0  0  0
  5  8  1  0  0  0  0
  5 25  1  0  0  0  0
  5 26  1  0  0  0  0
  6  9  1  0  0  0  0
  6 27  1  0  0  0  0
  6 28  1  0  0  0  0
  8  9  2  0  0  0  0
  8 29  1  0  0  0  0
  9 30  1  0  0  0  0
 10 11  1  0  0  0  0
 10 12  2  0  0  0  0
 11 13  1  0  0  0  0
 11 14  2  0  0  0  0
 12 15  1  0  0  0  0
 12 32  1  0  0  0  0
 13 17  2  0  0  0  0
 13 18  1  0  0  0  0
 14 16  1  0  0  0  0
 14 33  1  0  0  0  0
 15 16  2  0  0  0  0
 15 34  1  0  0  0  0
 16 35  1  0  0  0  0
 17 19  1  0  0  0  0
 17 36  1  0  0  0  0
 18 20  2  0  0  0  0
 18 37  1  0  0  0  0
 19 21  2  0  0  0  0
 19 38  1  0  0  0  0
 20 21  1  0  0  0  0
 20 39  1  0  0  0  0
 21 40  1  0  0  0  0
M  END
> <PUBCHEM_COMPOUND_CID>
47004459

> <PUBCHEM_COMPOUND_CANONICALIZED>
1

> <PUBCHEM_CACTVS_COMPLEXITY>
370

> <PUBCHEM_CACTVS_HBOND_ACCEPTOR>
1

> <PUBCHEM_CACTVS_HBOND_DONOR>
1

> <PUBCHEM_CACTVS_ROTATABLE_BOND>
3

> <PUBCHEM_CACTVS_SUBSKEYS>
AAADceB6IAAAAAAAAAAAAAAAAAAAAAAAAAAwYIAAAAAAAAABQAAAHgAQAAAADQiBmAAwwILAAACIAiVSUACCAAAhAgAIiAEAZIgIIDLAkZGEIAhglADIyAcYgMAOgAAAAAACAAAAAAAAAAQAAAAAAAAAAA==

> <PUBCHEM_IUPAC_OPENEYE_NAME>
N-(2-phenylphenyl)cyclohex-3-ene-1-carboxamide

> <PUBCHEM_IUPAC_CAS_NAME>
N-(2-phenylphenyl)-1-cyclohex-3-enecarboxamide

> <PUBCHEM_IUPAC_NAME>
N-(2-phenylphenyl)cyclohex-3-ene-1-carboxamide

> <PUBCHEM_IUPAC_SYSTEMATIC_NAME>
N-(2-phenylphenyl)cyclohex-3-ene-1-carboxamide

> <PUBCHEM_IUPAC_TRADITIONAL_NAME>
N-(2-phenylphenyl)cyclohex-3-ene-1-carboxamide

> <PUBCHEM_IUPAC_INCHI>
InChI=1S/C19H19NO/c21-19(16-11-5-2-6-12-16)20-18-14-8-7-13-17(18)15-9-3-1-4-10-15/h1-5,7-10,13-14,16H,6,11-12H2,(H,20,21)

> <PUBCHEM_IUPAC_INCHIKEY>
SLYKFVIXMGILNF-UHFFFAOYSA-N

> <PUBCHEM_XLOGP3>
3.5

> <PUBCHEM_EXACT_MASS>
277.146664

> <PUBCHEM_MOLECULAR_FORMULA>
C19H19NO

> <PUBCHEM_MOLECULAR_WEIGHT>
277.36026

> <PUBCHEM_OPENEYE_CAN_SMILES>
C1CC(CC=C1)C(=O)NC2=CC=CC=C2C3=CC=CC=C3

> <PUBCHEM_OPENEYE_ISO_SMILES>
C1CC(CC=C1)C(=O)NC2=CC=CC=C2C3=CC=CC=C3

> <PUBCHEM_CACTVS_TPSA>
29.1

> <PUBCHEM_MONOISOTOPIC_WEIGHT>
277.146664

> <PUBCHEM_TOTAL_CHARGE>
0

> <PUBCHEM_HEAVY_ATOM_COUNT>
21

> <PUBCHEM_ATOM_DEF_STEREO_COUNT>
0

> <PUBCHEM_ATOM_UDEF_STEREO_COUNT>
1

> <PUBCHEM_BOND_DEF_STEREO_COUNT>
0

> <PUBCHEM_BOND_UDEF_STEREO_COUNT>
0

> <PUBCHEM_ISOTOPIC_ATOM_COUNT>
0

> <PUBCHEM_COMPONENT_COUNT>
1

> <PUBCHEM_CACTVS_TAUTO_COUNT>
3

> <PUBCHEM_COORDINATE_TYPE>
1
5
255

> <PUBCHEM_BONDANNOTATIONS>
10  11  8
10  12  8
11  14  8
12  15  8
13  17  8
13  18  8
14  16  8
15  16  8
17  19  8
18  20  8
19  21  8
20  21  8
3  7  3

$$$$
47014190
  -OEChem-11301217582D

 43 46  0     1  0  0  0  0  0999 V2000
    7.9244   -0.4016    0.0000 O   0  0  0  0  0  0  0  0  0  0  0  0
    6.2781    0.1364    0.0000 N   0  0  0  0  0  0  0  0  0  0  0  0
    4.6783   -3.5803    0.0000 N   0  0  0  0  0  0  0  0  0  0  0  0
    9.3508    2.1981    0.0000 C   0  0  3  0  0  0  0  0  0  0  0  0
    9.6615    3.1486    0.0000 C   0  0  3  0  0  0  0  0  0  0  0  0
    8.9791    4.1696    0.0000 C   0  0  0  0  0  0  0  0  0  0  0  0
    7.5673    1.2932    0.0000 C   0  0  3  0  0  0  0  0  0  0  0  0
    7.1148    2.1850    0.0000 C   0  0  0  0  0  0  0  0  0  0  0  0
   11.1391    1.3413    0.0000 C   0  0  0  0  0  0  0  0  0  0  0  0
   11.4498    2.2918    0.0000 C   0  0  0  0  0  0  0  0  0  0  0  0
    7.2566    0.3427    0.0000 C   0  0  0  0  0  0  0  0  0  0  0  0
    5.9674   -0.8141    0.0000 C   0  0  0  0  0  0  0  0  0  0  0  0
    4.9889   -1.0203    0.0000 C   0  0  0  0  0  0  0  0  0  0  0  0
    4.6783   -1.9708    0.0000 C   0  0  0  0  0  0  0  0  0  0  0  0
    3.7320   -2.2756    0.0000 C   0  0  0  0  0  0  0  0  0  0  0  0
    5.2619   -2.7756    0.0000 C   0  0  0  0  0  0  0  0  0  0  0  0
    3.7320   -3.2756    0.0000 C   0  0  0  0  0  0  0  0  0  0  0  0
    2.8660   -1.7756    0.0000 C   0  0  0  0  0  0  0  0  0  0  0  0
    2.8660   -3.7756    0.0000 C   0  0  0  0  0  0  0  0  0  0  0  0
    2.0000   -2.2756    0.0000 C   0  0  0  0  0  0  0  0  0  0  0  0
    2.0000   -3.2756    0.0000 C   0  0  0  0  0  0  0  0  0  0  0  0
    9.3579    1.5781    0.0000 H   0  0  0  0  0  0  0  0  0  0  0  0
    9.6352    2.5292    0.0000 H   0  0  0  0  0  0  0  0  0  0  0  0
    9.3252    4.6840    0.0000 H   0  0  0  0  0  0  0  0  0  0  0  0
    8.3718    4.2946    0.0000 H   0  0  0  0  0  0  0  0  0  0  0  0
    6.9491    1.2456    0.0000 H   0  0  0  0  0  0  0  0  0  0  0  0
    6.8747    2.7566    0.0000 H   0  0  0  0  0  0  0  0  0  0  0  0
    6.5522    1.9245    0.0000 H   0  0  0  0  0  0  0  0  0  0  0  0
   10.8959    0.7710    0.0000 H   0  0  0  0  0  0  0  0  0  0  0  0
   11.7195    1.1232    0.0000 H   0  0  0  0  0  0  0  0  0  0  0  0
   12.0301    2.0737    0.0000 H   0  0  0  0  0  0  0  0  0  0  0  0
   11.6930    2.8621    0.0000 H   0  0  0  0  0  0  0  0  0  0  0  0
    5.8640    0.5979    0.0000 H   0  0  0  0  0  0  0  0  0  0  0  0
    5.9880   -1.4337    0.0000 H   0  0  0  0  0  0  0  0  0  0  0  0
    6.5812   -0.9014    0.0000 H   0  0  0  0  0  0  0  0  0  0  0  0
    4.9684   -0.4006    0.0000 H   0  0  0  0  0  0  0  0  0  0  0  0
    4.3751   -0.9329    0.0000 H   0  0  0  0  0  0  0  0  0  0  0  0
    5.8819   -2.7756    0.0000 H   0  0  0  0  0  0  0  0  0  0  0  0
    4.8709   -4.1696    0.0000 H   0  0  0  0  0  0  0  0  0  0  0  0
    2.8660   -1.1556    0.0000 H   0  0  0  0  0  0  0  0  0  0  0  0
    2.8660   -4.3956    0.0000 H   0  0  0  0  0  0  0  0  0  0  0  0
    1.4631   -1.9656    0.0000 H   0  0  0  0  0  0  0  0  0  0  0  0
    1.4631   -3.5856    0.0000 H   0  0  0  0  0  0  0  0  0  0  0  0
  1 11  2  0  0  0  0
  2 11  1  0  0  0  0
  2 12  1  0  0  0  0
  2 33  1  0  0  0  0
  3 16  1  0  0  0  0
  3 17  1  0  0  0  0
  3 39  1  0  0  0  0
  4  6  1  0  0  0  0
  4  7  1  0  0  0  0
  4  9  1  0  0  0  0
  4 22  1  0  0  0  0
  5  6  1  0  0  0  0
  5  8  1  0  0  0  0
  5 10  1  0  0  0  0
  5 23  1  0  0  0  0
  6 24  1  0  0  0  0
  6 25  1  0  0  0  0
  7  8  1  0  0  0  0
  7 11  1  0  0  0  0
  7 26  1  0  0  0  0
  8 27  1  0  0  0  0
  8 28  1  0  0  0  0
  9 10  1  0  0  0  0
  9 29  1  0  0  0  0
  9 30  1  0  0  0  0
 10 31  1  0  0  0  0
 10 32  1  0  0  0  0
 12 13  1  0  0  0  0
 12 34  1  0  0  0  0
 12 35  1  0  0  0  0
 13 14  1  0  0  0  0
 13 36  1  0  0  0  0
 13 37  1  0  0  0  0
 14 15  1  0  0  0  0
 14 16  2  0  0  0  0
 15 17  1  0  0  0  0
 15 18  2  0  0  0  0
 16 38  1  0  0  0  0
 17 19  2  0  0  0  0
 18 20  1  0  0  0  0
 18 40  1  0  0  0  0
 19 21  1  0  0  0  0
 19 41  1  0  0  0  0
 20 21  2  0  0  0  0
 20 42  1  0  0  0  0
 21 43  1  0  0  0  0
M  END
> <PUBCHEM_COMPOUND_CID>
47014190

> <PUBCHEM_COMPOUND_CANONICALIZED>
1

> <PUBCHEM_CACTVS_COMPLEXITY>
397

> <PUBCHEM_CACTVS_HBOND_ACCEPTOR>
1

> <PUBCHEM_CACTVS_HBOND_DONOR>
2

> <PUBCHEM_CACTVS_ROTATABLE_BOND>
4

> <PUBCHEM_CACTVS_SUBSKEYS>
AAADceB7IAAAAAAAAAAAAAAAAAAAAeMEAAAwYAAAAAAAAFgB8AAAHgAQAAAADQjBngQ8wPLJkACoAzV3VACCgCAxAiAI2aE4ZJgIIPLAkZGEIAhglgDIyAcYiMCOgAAAAAACAAAAAAQAACQAAQAACAAAAA==

> <PUBCHEM_IUPAC_OPENEYE_NAME>
N-[2-(1H-indol-3-yl)ethyl]norbornane-2-carboxamide

> <PUBCHEM_IUPAC_CAS_NAME>
N-[2-(1H-indol-3-yl)ethyl]-3-bicyclo[2.2.1]heptanecarboxamide

> <PUBCHEM_IUPAC_NAME>
N-[2-(1H-indol-3-yl)ethyl]bicyclo[2.2.1]heptane-3-carboxamide

> <PUBCHEM_IUPAC_SYSTEMATIC_NAME>
N-[2-(1H-indol-3-yl)ethyl]bicyclo[2.2.1]heptane-3-carboxamide

> <PUBCHEM_IUPAC_TRADITIONAL_NAME>
N-[2-(1H-indol-3-yl)ethyl]norbornane-2-carboxamide

> <PUBCHEM_IUPAC_INCHI>
InChI=1S/C18H22N2O/c21-18(16-10-12-5-6-13(16)9-12)19-8-7-14-11-20-17-4-2-1-3-15(14)17/h1-4,11-13,16,20H,5-10H2,(H,19,21)

> <PUBCHEM_IUPAC_INCHIKEY>
ZAHJYVMXXCGFIJ-UHFFFAOYSA-N

> <PUBCHEM_XLOGP3>
3.8

> <PUBCHEM_EXACT_MASS>
282.173213

> <PUBCHEM_MOLECULAR_FORMULA>
C18H22N2O

> <PUBCHEM_MOLECULAR_WEIGHT>
282.38008

> <PUBCHEM_OPENEYE_CAN_SMILES>
C1CC2CC1CC2C(=O)NCCC3=CNC4=CC=CC=C43

> <PUBCHEM_OPENEYE_ISO_SMILES>
C1CC2CC1CC2C(=O)NCCC3=CNC4=CC=CC=C43

> <PUBCHEM_CACTVS_TPSA>
44.9

> <PUBCHEM_MONOISOTOPIC_WEIGHT>
282.173213

> <PUBCHEM_TOTAL_CHARGE>
0

> <PUBCHEM_HEAVY_ATOM_COUNT>
21

> <PUBCHEM_ATOM_DEF_STEREO_COUNT>
0

> <PUBCHEM_ATOM_UDEF_STEREO_COUNT>
3

> <PUBCHEM_BOND_DEF_STEREO_COUNT>
0

> <PUBCHEM_BOND_UDEF_STEREO_COUNT>
0

> <PUBCHEM_ISOTOPIC_ATOM_COUNT>
0

> <PUBCHEM_COMPONENT_COUNT>
1

> <PUBCHEM_CACTVS_TAUTO_COUNT>
2

> <PUBCHEM_COORDINATE_TYPE>
1
5
255

> <PUBCHEM_BONDANNOTATIONS>
14  15  8
14  16  8
15  17  8
15  18  8
17  19  8
18  20  8
19  21  8
20  21  8
3  16  8
3  17  8
4  9  3
5  10  3
7  11  3

$$$$
47015034
  -OEChem-11301217582D

 45 47  0     1  0  0  0  0  0999 V2000
    6.6353   -1.8461    0.0000 O   0  0  0  0  0  0  0  0  0  0  0  0
    4.9889   -1.3080    0.0000 N   0  0  0  0  0  0  0  0  0  0  0  0
    4.6783   -2.2585    0.0000 C   0  0  3  0  0  0  0  0  0  0  0  0
    5.2619   -3.0633    0.0000 C   0  0  0  0  0  0  0  0  0  0  0  0
    4.6783   -3.8680    0.0000 C   0  0  0  0  0  0  0  0  0  0  0  0
    3.7320   -2.5633    0.0000 C   0  0  0  0  0  0  0  0  0  0  0  0
    3.7320   -3.5633    0.0000 C   0  0  0  0  0  0  0  0  0  0  0  0
    2.8660   -2.0633    0.0000 C   0  0  0  0  0  0  0  0  0  0  0  0
    2.8660   -4.0633    0.0000 C   0  0  0  0  0  0  0  0  0  0  0  0
    5.9674   -1.1018    0.0000 C   0  0  0  0  0  0  0  0  0  0  0  0
    6.2781   -0.1513    0.0000 C   0  0  0  0  0  0  0  0  0  0  0  0
    2.0000   -2.5633    0.0000 C   0  0  0  0  0  0  0  0  0  0  0  0
    2.0000   -3.5633    0.0000 C   0  0  0  0  0  0  0  0  0  0  0  0
    7.2566    0.0550    0.0000 C   0  0  0  0  0  0  0  0  0  0  0  0
    7.5673    1.0055    0.0000 C   0  0  0  0  0  0  0  0  0  0  0  0
    8.5458    1.2117    0.0000 C   0  0  0  0  0  0  0  0  0  0  0  0
    6.8994    1.7498    0.0000 C   0  0  0  0  0  0  0  0  0  0  0  0
    8.1886    2.9065    0.0000 C   0  0  0  0  0  0  0  0  0  0  0  0
    8.8564    2.1622    0.0000 C   0  0  0  0  0  0  0  0  0  0  0  0
    7.2101    2.7003    0.0000 C   0  0  0  0  0  0  0  0  0  0  0  0
    8.4993    3.8570    0.0000 C   0  0  0  0  0  0  0  0  0  0  0  0
    9.4778    4.0633    0.0000 C   0  0  0  0  0  0  0  0  0  0  0  0
    5.2908   -2.1623    0.0000 H   0  0  0  0  0  0  0  0  0  0  0  0
    5.7227   -3.4780    0.0000 H   0  0  0  0  0  0  0  0  0  0  0  0
    5.7227   -2.6485    0.0000 H   0  0  0  0  0  0  0  0  0  0  0  0
    4.4272   -4.4349    0.0000 H   0  0  0  0  0  0  0  0  0  0  0  0
    5.2156   -4.1772    0.0000 H   0  0  0  0  0  0  0  0  0  0  0  0
    4.5749   -0.8465    0.0000 H   0  0  0  0  0  0  0  0  0  0  0  0
    2.8660   -1.4433    0.0000 H   0  0  0  0  0  0  0  0  0  0  0  0
    2.8660   -4.6833    0.0000 H   0  0  0  0  0  0  0  0  0  0  0  0
    6.2575    0.4684    0.0000 H   0  0  0  0  0  0  0  0  0  0  0  0
    5.6643   -0.0639    0.0000 H   0  0  0  0  0  0  0  0  0  0  0  0
    1.4631   -2.2533    0.0000 H   0  0  0  0  0  0  0  0  0  0  0  0
    1.4631   -3.8733    0.0000 H   0  0  0  0  0  0  0  0  0  0  0  0
    7.2772   -0.5647    0.0000 H   0  0  0  0  0  0  0  0  0  0  0  0
    7.8704   -0.0324    0.0000 H   0  0  0  0  0  0  0  0  0  0  0  0
    8.9598    0.7502    0.0000 H   0  0  0  0  0  0  0  0  0  0  0  0
    6.2928    1.6219    0.0000 H   0  0  0  0  0  0  0  0  0  0  0  0
    9.4631    2.2901    0.0000 H   0  0  0  0  0  0  0  0  0  0  0  0
    6.7960    3.1618    0.0000 H   0  0  0  0  0  0  0  0  0  0  0  0
    8.4787    4.4767    0.0000 H   0  0  0  0  0  0  0  0  0  0  0  0
    7.8854    3.9444    0.0000 H   0  0  0  0  0  0  0  0  0  0  0  0
    9.6056    3.4566    0.0000 H   0  0  0  0  0  0  0  0  0  0  0  0
   10.0844    4.1911    0.0000 H   0  0  0  0  0  0  0  0  0  0  0  0
    9.3499    4.6699    0.0000 H   0  0  0  0  0  0  0  0  0  0  0  0
  1 10  2  0  0  0  0
  2  3  1  0  0  0  0
  2 10  1  0  0  0  0
  2 28  1  0  0  0  0
  3  4  1  0  0  0  0
  3  6  1  0  0  0  0
  3 23  1  0  0  0  0
  4  5  1  0  0  0  0
  4 24  1  0  0  0  0
  4 25  1  0  0  0  0
  5  7  1  0  0  0  0
  5 26  1  0  0  0  0
  5 27  1  0  0  0  0
  6  7  1  0  0  0  0
  6  8  2  0  0  0  0
  7  9  2  0  0  0  0
  8 12  1  0  0  0  0
  8 29  1  0  0  0  0
  9 13  1  0  0  0  0
  9 30  1  0  0  0  0
 10 11  1  0  0  0  0
 11 14  1  0  0  0  0
 11 31  1  0  0  0  0
 11 32  1  0  0  0  0
 12 13  2  0  0  0  0
 12 33  1  0  0  0  0
 13 34  1  0  0  0  0
 14 15  1  0  0  0  0
 14 35  1  0  0  0  0
 14 36  1  0  0  0  0
 15 16  2  0  0  0  0
 15 17  1  0  0  0  0
 16 19  1  0  0  0  0
 16 37  1  0  0  0  0
 17 20  2  0  0  0  0
 17 38  1  0  0  0  0
 18 19  2  0  0  0  0
 18 20  1  0  0  0  0
 18 21  1  0  0  0  0
 19 39  1  0  0  0  0
 20 40  1  0  0  0  0
 21 22  1  0  0  0  0
 21 41  1  0  0  0  0
 21 42  1  0  0  0  0
 22 43  1  0  0  0  0
 22 44  1  0  0  0  0
 22 45  1  0  0  0  0
M  END
> <PUBCHEM_COMPOUND_CID>
47015034

> <PUBCHEM_COMPOUND_CANONICALIZED>
1

> <PUBCHEM_CACTVS_COMPLEXITY>
359

> <PUBCHEM_CACTVS_HBOND_ACCEPTOR>
1

> <PUBCHEM_CACTVS_HBOND_DONOR>
1

> <PUBCHEM_CACTVS_ROTATABLE_BOND>
5

> <PUBCHEM_CACTVS_SUBSKEYS>
AAADceB6IAAAAAAAAAAAAAAAAAAAAYAAAAAwYAAAAAAAAGABQAAAHgAQAAAADCjBmAQyAILAAACIAiFSEACCAAAgAAAIiIEIBIgIIDKAkRGEIAhglgCIiAcYiMCOwAAAAAAQAACAAAAAACAAACAACQAAAA==

> <PUBCHEM_IUPAC_OPENEYE_NAME>
3-(4-ethylphenyl)-N-indan-1-yl-propanamide

> <PUBCHEM_IUPAC_CAS_NAME>
N-(2,3-dihydro-1H-inden-1-yl)-3-(4-ethylphenyl)propanamide

> <PUBCHEM_IUPAC_NAME>
N-(2,3-dihydro-1H-inden-1-yl)-3-(4-ethylphenyl)propanamide

> <PUBCHEM_IUPAC_SYSTEMATIC_NAME>
N-(2,3-dihydro-1H-inden-1-yl)-3-(4-ethylphenyl)propanamide

> <PUBCHEM_IUPAC_TRADITIONAL_NAME>
3-(4-ethylphenyl)-N-indan-1-yl-propionamide

> <PUBCHEM_IUPAC_INCHI>
InChI=1S/C20H23NO/c1-2-15-7-9-16(10-8-15)11-14-20(22)21-19-13-12-17-5-3-4-6-18(17)19/h3-10,19H,2,11-14H2,1H3,(H,21,22)

> <PUBCHEM_IUPAC_INCHIKEY>
YKOJVKHBDVOPLH-UHFFFAOYSA-N

> <PUBCHEM_XLOGP3>
4.6

> <PUBCHEM_EXACT_MASS>
293.177964

> <PUBCHEM_MOLECULAR_FORMULA>
C20H23NO

> <PUBCHEM_MOLECULAR_WEIGHT>
293.40272

> <PUBCHEM_OPENEYE_CAN_SMILES>
CCC1=CC=C(C=C1)CCC(=O)NC2CCC3=CC=CC=C23

> <PUBCHEM_OPENEYE_ISO_SMILES>
CCC1=CC=C(C=C1)CCC(=O)NC2CCC3=CC=CC=C23

> <PUBCHEM_CACTVS_TPSA>
29.1

> <PUBCHEM_MONOISOTOPIC_WEIGHT>
293.177964

> <PUBCHEM_TOTAL_CHARGE>
0

> <PUBCHEM_HEAVY_ATOM_COUNT>
22

> <PUBCHEM_ATOM_DEF_STEREO_COUNT>
0

> <PUBCHEM_ATOM_UDEF_STEREO_COUNT>
1

> <PUBCHEM_BOND_DEF_STEREO_COUNT>
0

> <PUBCHEM_BOND_UDEF_STEREO_COUNT>
0

> <PUBCHEM_ISOTOPIC_ATOM_COUNT>
0

> <PUBCHEM_COMPONENT_COUNT>
1

> <PUBCHEM_CACTVS_TAUTO_COUNT>
2

> <PUBCHEM_COORDINATE_TYPE>
1
5
255

> <PUBCHEM_BONDANNOTATIONS>
12  13  8
15  16  8
15  17  8
16  19  8
17  20  8
18  19  8
18  20  8
3  2  3
6  7  8
6  8  8
7  9  8
8  12  8
9  13  8

$$$$
