47585834
  -OEChem-12041212112D

 39 40  0     0  0  0  0  0  0999 V2000
    2.0000   -1.8988    0.0000 F   0  0  0  0  0  0  0  0  0  0  0  0
    2.3660   -0.5328    0.0000 F   0  0  0  0  0  0  0  0  0  0  0  0
    3.3660   -2.2648    0.0000 F   0  0  0  0  0  0  0  0  0  0  0  0
    8.9282    0.1012    0.0000 O   0  0  0  0  0  0  0  0  0  0  0  0
    4.5981   -1.3988    0.0000 O   0  0  0  0  0  0  0  0  0  0  0  0
   13.5988   -1.0927    0.0000 O   0  5  0  0  0  0  0  0  0  0  0  0
   11.9046   -1.4528    0.0000 O   0  0  0  0  0  0  0  0  0  0  0  0
    8.0622    1.6012    0.0000 O   0  0  0  0  0  0  0  0  0  0  0  0
   11.5263    0.6012    0.0000 N   0  0  0  0  0  0  0  0  0  0  0  0
   12.6090    1.8036    0.0000 N   0  0  0  0  0  0  0  0  0  0  0  0
   12.6477   -0.7837    0.0000 N   0  3  0  0  0  0  0  0  0  0  0  0
    6.3301   -1.3988    0.0000 N   0  0  0  0  0  0  0  0  0  0  0  0
   10.6603    0.1012    0.0000 C   0  0  0  0  0  0  0  0  0  0  0  0
   11.6308    1.5957    0.0000 C   0  0  0  0  0  0  0  0  0  0  0  0
    9.7942    0.6012    0.0000 C   0  0  0  0  0  0  0  0  0  0  0  0
   12.4398    0.1945    0.0000 C   0  0  0  0  0  0  0  0  0  0  0  0
   13.1090    0.9376    0.0000 C   0  0  0  0  0  0  0  0  0  0  0  0
   10.8877    2.2648    0.0000 C   0  0  0  0  0  0  0  0  0  0  0  0
    8.0622    0.6012    0.0000 C   0  0  0  0  0  0  0  0  0  0  0  0
    7.1962    0.1012    0.0000 C   0  0  0  0  0  0  0  0  0  0  0  0
    6.3301    0.6012    0.0000 C   0  0  0  0  0  0  0  0  0  0  0  0
    7.1962   -0.8988    0.0000 C   0  0  0  0  0  0  0  0  0  0  0  0
    5.4641   -0.8988    0.0000 C   0  0  0  0  0  0  0  0  0  0  0  0
    5.4641    0.1012    0.0000 C   0  0  0  0  0  0  0  0  0  0  0  0
    3.7320   -0.8988    0.0000 C   0  0  0  0  0  0  0  0  0  0  0  0
    2.8660   -1.3988    0.0000 C   0  0  0  0  0  0  0  0  0  0  0  0
   10.2617   -0.3738    0.0000 H   0  0  0  0  0  0  0  0  0  0  0  0
   11.0588   -0.3738    0.0000 H   0  0  0  0  0  0  0  0  0  0  0  0
   10.1928    1.0761    0.0000 H   0  0  0  0  0  0  0  0  0  0  0  0
    9.3957    1.0761    0.0000 H   0  0  0  0  0  0  0  0  0  0  0  0
   13.7256    0.8728    0.0000 H   0  0  0  0  0  0  0  0  0  0  0  0
   11.3025    2.7256    0.0000 H   0  0  0  0  0  0  0  0  0  0  0  0
   10.4269    2.6797    0.0000 H   0  0  0  0  0  0  0  0  0  0  0  0
   10.4728    1.8041    0.0000 H   0  0  0  0  0  0  0  0  0  0  0  0
    6.3301    1.2212    0.0000 H   0  0  0  0  0  0  0  0  0  0  0  0
    7.7331   -1.2088    0.0000 H   0  0  0  0  0  0  0  0  0  0  0  0
    4.9272    0.4112    0.0000 H   0  0  0  0  0  0  0  0  0  0  0  0
    4.1306   -0.4239    0.0000 H   0  0  0  0  0  0  0  0  0  0  0  0
    3.3335   -0.4239    0.0000 H   0  0  0  0  0  0  0  0  0  0  0  0
  1 26  1  0  0  0  0
  2 26  1  0  0  0  0
  3 26  1  0  0  0  0
  4 15  1  0  0  0  0
  4 19  1  0  0  0  0
  5 23  1  0  0  0  0
  5 25  1  0  0  0  0
  6 11  1  0  0  0  0
  7 11  2  0  0  0  0
  8 19  2  0  0  0  0
  9 13  1  0  0  0  0
  9 14  1  0  0  0  0
  9 16  1  0  0  0  0
 10 14  2  0  0  0  0
 10 17  1  0  0  0  0
 11 16  1  0  0  0  0
 12 22  1  0  0  0  0
 12 23  2  0  0  0  0
 13 15  1  0  0  0  0
 13 27  1  0  0  0  0
 13 28  1  0  0  0  0
 14 18  1  0  0  0  0
 15 29  1  0  0  0  0
 15 30  1  0  0  0  0
 16 17  2  0  0  0  0
 17 31  1  0  0  0  0
 18 32  1  0  0  0  0
 18 33  1  0  0  0  0
 18 34  1  0  0  0  0
 19 20  1  0  0  0  0
 20 21  1  0  0  0  0
 20 22  2  0  0  0  0
 21 24  2  0  0  0  0
 21 35  1  0  0  0  0
 22 36  1  0  0  0  0
 23 24  1  0  0  0  0
 24 37  1  0  0  0  0
 25 26  1  0  0  0  0
 25 38  1  0  0  0  0
 25 39  1  0  0  0  0
M  CHG  2   6  -1  11   1
M  END
> <PUBCHEM_COMPOUND_CID>
47585834

> <PUBCHEM_COMPOUND_CANONICALIZED>
1

> <PUBCHEM_CACTVS_COMPLEXITY>
502

> <PUBCHEM_CACTVS_HBOND_ACCEPTOR>
10

> <PUBCHEM_CACTVS_HBOND_DONOR>
0

> <PUBCHEM_CACTVS_ROTATABLE_BOND>
7

> <PUBCHEM_CACTVS_SUBSKEYS>
AAADccBzuYAAAAAAAAAAAAAAAAAAAWAAAAAsAAAAAAAAAAAB4AAAHwAEAAAADADhmxY/vJccVACpAjL3bwCCiC01MqAp2CE+fNqObvrEvZufOajuwJPY6eaYNQoMAAAAAAAAAAAAAAAAAAAAAAAAAAAAAA==

> <PUBCHEM_IUPAC_OPENEYE_NAME>
2-(2-methyl-5-nitro-imidazol-1-yl)ethyl 6-(2,2,2-trifluoroethoxy)pyridine-3-carboxylate

> <PUBCHEM_IUPAC_CAS_NAME>
6-(2,2,2-trifluoroethoxy)-3-pyridinecarboxylic acid 2-(2-methyl-5-nitro-1-imidazolyl)ethyl ester

> <PUBCHEM_IUPAC_NAME>
2-(2-methyl-5-nitroimidazol-1-yl)ethyl 6-(2,2,2-trifluoroethoxy)pyridine-3-carboxylate

> <PUBCHEM_IUPAC_SYSTEMATIC_NAME>
2-(2-methyl-5-nitro-imidazol-1-yl)ethyl 6-[2,2,2-tris(fluoranyl)ethoxy]pyridine-3-carboxylate

> <PUBCHEM_IUPAC_TRADITIONAL_NAME>
6-(2,2,2-trifluoroethoxy)nicotinic acid 2-(2-methyl-5-nitro-imidazol-1-yl)ethyl ester

> <PUBCHEM_IUPAC_INCHI>
InChI=1S/C14H13F3N4O5/c1-9-18-7-12(21(23)24)20(9)4-5-25-13(22)10-2-3-11(19-6-10)26-8-14(15,16)17/h2-3,6-7H,4-5,8H2,1H3

> <PUBCHEM_IUPAC_INCHIKEY>
YKUCGDZSTKBEJW-UHFFFAOYSA-N

> <PUBCHEM_XLOGP3>
2.3

> <PUBCHEM_EXACT_MASS>
374.083804

> <PUBCHEM_MOLECULAR_FORMULA>
C14H13F3N4O5

> <PUBCHEM_MOLECULAR_WEIGHT>
374.27203

> <PUBCHEM_OPENEYE_CAN_SMILES>
CC1=NC=C(N1CCOC(=O)C2=CN=C(C=C2)OCC(F)(F)F)[N+](=O)[O-]

> <PUBCHEM_OPENEYE_ISO_SMILES>
CC1=NC=C(N1CCOC(=O)C2=CN=C(C=C2)OCC(F)(F)F)[N+](=O)[O-]

> <PUBCHEM_CACTVS_TPSA>
112

> <PUBCHEM_MONOISOTOPIC_WEIGHT>
374.083804

> <PUBCHEM_TOTAL_CHARGE>
0

> <PUBCHEM_HEAVY_ATOM_COUNT>
26

> <PUBCHEM_ATOM_DEF_STEREO_COUNT>
0

> <PUBCHEM_ATOM_UDEF_STEREO_COUNT>
0

> <PUBCHEM_BOND_DEF_STEREO_COUNT>
0

> <PUBCHEM_BOND_UDEF_STEREO_COUNT>
0

> <PUBCHEM_ISOTOPIC_ATOM_COUNT>
0

> <PUBCHEM_COMPONENT_COUNT>
1

> <PUBCHEM_CACTVS_TAUTO_COUNT>
1

> <PUBCHEM_COORDINATE_TYPE>
1
5
255

> <PUBCHEM_BONDANNOTATIONS>
10  14  8
10  17  8
12  22  8
12  23  8
16  17  8
20  21  8
20  22  8
21  24  8
23  24  8
9  14  8
9  16  8

$$$$
