46988421
  -OEChem-11301217582D

 25 26  0     0  0  0  0  0  0999 V2000
    2.0000    1.0044    0.0000 Cl  0  0  0  0  0  0  0  0  0  0  0  0
    5.5443    0.8092    0.0000 N   0  0  0  0  0  0  0  0  0  0  0  0
    5.5443   -0.8003    0.0000 N   0  0  0  0  0  0  0  0  0  0  0  0
    4.5981    0.5045    0.0000 C   0  0  0  0  0  0  0  0  0  0  0  0
    6.1279    0.0045    0.0000 C   0  0  0  0  0  0  0  0  0  0  0  0
    4.5981   -0.4955    0.0000 C   0  0  0  0  0  0  0  0  0  0  0  0
    7.1279    0.0045    0.0000 C   0  0  0  0  0  0  0  0  0  0  0  0
    3.7320    1.0044    0.0000 C   0  0  0  0  0  0  0  0  0  0  0  0
    3.7320   -0.9955    0.0000 C   0  0  0  0  0  0  0  0  0  0  0  0
    2.8660    0.5045    0.0000 C   0  0  0  0  0  0  0  0  0  0  0  0
    7.6279    0.8705    0.0000 C   0  0  0  0  0  0  0  0  0  0  0  0
    2.8660   -0.4955    0.0000 C   0  0  0  0  0  0  0  0  0  0  0  0
    7.6279   -0.8616    0.0000 C   0  0  0  0  0  0  0  0  0  0  0  0
    8.6279   -0.8616    0.0000 C   0  0  0  0  0  0  0  0  0  0  0  0
    5.7369    1.3985    0.0000 H   0  0  0  0  0  0  0  0  0  0  0  0
    3.7320    1.6244    0.0000 H   0  0  0  0  0  0  0  0  0  0  0  0
    3.7320   -1.6156    0.0000 H   0  0  0  0  0  0  0  0  0  0  0  0
    8.1648    0.5605    0.0000 H   0  0  0  0  0  0  0  0  0  0  0  0
    7.9379    1.4074    0.0000 H   0  0  0  0  0  0  0  0  0  0  0  0
    7.0910    1.1805    0.0000 H   0  0  0  0  0  0  0  0  0  0  0  0
    2.3291   -0.8055    0.0000 H   0  0  0  0  0  0  0  0  0  0  0  0
    7.3179   -1.3985    0.0000 H   0  0  0  0  0  0  0  0  0  0  0  0
    8.6279   -1.4816    0.0000 H   0  0  0  0  0  0  0  0  0  0  0  0
    9.2479   -0.8616    0.0000 H   0  0  0  0  0  0  0  0  0  0  0  0
    8.6279   -0.2416    0.0000 H   0  0  0  0  0  0  0  0  0  0  0  0
  1 10  1  0  0  0  0
  2  4  1  0  0  0  0
  2  5  1  0  0  0  0
  2 15  1  0  0  0  0
  3  5  2  0  0  0  0
  3  6  1  0  0  0  0
  4  6  2  0  0  0  0
  4  8  1  0  0  0  0
  5  7  1  0  0  0  0
  6  9  1  0  0  0  0
  7 11  1  0  0  0  0
  7 13  2  0  0  0  0
  8 10  2  0  0  0  0
  8 16  1  0  0  0  0
  9 12  2  0  0  0  0
  9 17  1  0  0  0  0
 10 12  1  0  0  0  0
 11 18  1  0  0  0  0
 11 19  1  0  0  0  0
 11 20  1  0  0  0  0
 12 21  1  0  0  0  0
 13 14  1  0  0  0  0
 13 22  1  0  0  0  0
 14 23  1  0  0  0  0
 14 24  1  0  0  0  0
 14 25  1  0  0  0  0
M  END
> <PUBCHEM_COMPOUND_CID>
46988421

> <PUBCHEM_COMPOUND_CANONICALIZED>
1

> <PUBCHEM_CACTVS_COMPLEXITY>
239

> <PUBCHEM_CACTVS_HBOND_ACCEPTOR>
1

> <PUBCHEM_CACTVS_HBOND_DONOR>
1

> <PUBCHEM_CACTVS_ROTATABLE_BOND>
1

> <PUBCHEM_CACTVS_SUBSKEYS>
AAADccBzAAAEAAAAAAAAAAAAAAAAAWAAAAAwAAAAAAAAAFgB8AAAHAIQAAAADAqBFyAz0LbJkACgAyZiZACCgC2hF6AJmSAwdpiIaKLBm5GUIAhokALIyCcQAAAAAABAAAIAACAAAIAABAAAQAAAAAAAAA==

> <PUBCHEM_IUPAC_OPENEYE_NAME>
6-chloro-2-[(E)-1-methylprop-1-enyl]-1H-benzimidazole

> <PUBCHEM_IUPAC_CAS_NAME>
2-[(E)-but-2-en-2-yl]-6-chloro-1H-benzimidazole

> <PUBCHEM_IUPAC_NAME>
2-[(E)-but-2-en-2-yl]-6-chloro-1H-benzimidazole

> <PUBCHEM_IUPAC_SYSTEMATIC_NAME>
2-[(E)-but-2-en-2-yl]-6-chloranyl-1H-benzimidazole

> <PUBCHEM_IUPAC_TRADITIONAL_NAME>
6-chloro-2-[(E)-1-methylprop-1-enyl]-1H-benzimidazole

> <PUBCHEM_IUPAC_INCHI>
InChI=1S/C11H11ClN2/c1-3-7(2)11-13-9-5-4-8(12)6-10(9)14-11/h3-6H,1-2H3,(H,13,14)/b7-3+

> <PUBCHEM_IUPAC_INCHIKEY>
HGKYFMCOYSUDKO-XVNBXDOJSA-N

> <PUBCHEM_XLOGP3>
4.1

> <PUBCHEM_EXACT_MASS>
206.061076

> <PUBCHEM_MOLECULAR_FORMULA>
C11H11ClN2

> <PUBCHEM_MOLECULAR_WEIGHT>
206.67144

> <PUBCHEM_OPENEYE_CAN_SMILES>
CC=C(C)C1=NC2=C(N1)C=C(C=C2)Cl

> <PUBCHEM_OPENEYE_ISO_SMILES>
C/C=C(\C)/C1=NC2=C(N1)C=C(C=C2)Cl

> <PUBCHEM_CACTVS_TPSA>
28.7

> <PUBCHEM_MONOISOTOPIC_WEIGHT>
206.061076

> <PUBCHEM_TOTAL_CHARGE>
0

> <PUBCHEM_HEAVY_ATOM_COUNT>
14

> <PUBCHEM_ATOM_DEF_STEREO_COUNT>
0

> <PUBCHEM_ATOM_UDEF_STEREO_COUNT>
0

> <PUBCHEM_BOND_DEF_STEREO_COUNT>
1

> <PUBCHEM_BOND_UDEF_STEREO_COUNT>
0

> <PUBCHEM_ISOTOPIC_ATOM_COUNT>
0

> <PUBCHEM_COMPONENT_COUNT>
1

> <PUBCHEM_CACTVS_TAUTO_COUNT>
5

> <PUBCHEM_COORDINATE_TYPE>
1
5
255

> <PUBCHEM_BONDANNOTATIONS>
10  12  8
2  4  8
2  5  8
3  5  8
3  6  8
4  6  8
4  8  8
6  9  8
8  10  8
9  12  8

$$$$
46992163
  -OEChem-11301217582D

 31 32  0     0  0  0  0  0  0999 V2000
    4.6783    1.8398    0.0000 N   0  0  0  0  0  0  0  0  0  0  0  0
    4.6783    0.2303    0.0000 N   0  0  0  0  0  0  0  0  0  0  0  0
    6.2619    1.0350    0.0000 C   0  0  0  0  0  0  0  0  0  0  0  0
    5.2619    1.0350    0.0000 C   0  0  0  0  0  0  0  0  0  0  0  0
    6.7619    0.1690    0.0000 C   0  0  0  0  0  0  0  0  0  0  0  0
    3.7320    1.5350    0.0000 C   0  0  0  0  0  0  0  0  0  0  0  0
    3.7320    0.5350    0.0000 C   0  0  0  0  0  0  0  0  0  0  0  0
    7.7619    0.1690    0.0000 C   0  0  0  0  0  0  0  0  0  0  0  0
    2.8660    2.0350    0.0000 C   0  0  0  0  0  0  0  0  0  0  0  0
    2.8660    0.0350    0.0000 C   0  0  0  0  0  0  0  0  0  0  0  0
    8.2619   -0.6970    0.0000 C   0  0  0  0  0  0  0  0  0  0  0  0
    2.0000    1.5350    0.0000 C   0  0  0  0  0  0  0  0  0  0  0  0
    2.0000    0.5350    0.0000 C   0  0  0  0  0  0  0  0  0  0  0  0
    7.7619   -1.5630    0.0000 C   0  0  0  0  0  0  0  0  0  0  0  0
    8.2619   -2.4291    0.0000 C   0  0  0  0  0  0  0  0  0  0  0  0
    6.8445    1.2471    0.0000 H   0  0  0  0  0  0  0  0  0  0  0  0
    6.1542    1.6456    0.0000 H   0  0  0  0  0  0  0  0  0  0  0  0
    6.1793   -0.0431    0.0000 H   0  0  0  0  0  0  0  0  0  0  0  0
    6.8695   -0.4416    0.0000 H   0  0  0  0  0  0  0  0  0  0  0  0
    4.8709    2.4291    0.0000 H   0  0  0  0  0  0  0  0  0  0  0  0
    8.0719    0.7059    0.0000 H   0  0  0  0  0  0  0  0  0  0  0  0
    2.8660    2.6550    0.0000 H   0  0  0  0  0  0  0  0  0  0  0  0
    2.8660   -0.5850    0.0000 H   0  0  0  0  0  0  0  0  0  0  0  0
    8.8819   -0.6970    0.0000 H   0  0  0  0  0  0  0  0  0  0  0  0
    1.4631    1.8450    0.0000 H   0  0  0  0  0  0  0  0  0  0  0  0
    7.2869   -1.1645    0.0000 H   0  0  0  0  0  0  0  0  0  0  0  0
    7.2869   -1.9616    0.0000 H   0  0  0  0  0  0  0  0  0  0  0  0
    1.4631    0.2250    0.0000 H   0  0  0  0  0  0  0  0  0  0  0  0
    7.7249   -2.7391    0.0000 H   0  0  0  0  0  0  0  0  0  0  0  0
    8.5719   -2.9660    0.0000 H   0  0  0  0  0  0  0  0  0  0  0  0
    8.7988   -2.1191    0.0000 H   0  0  0  0  0  0  0  0  0  0  0  0
  1  4  1  0  0  0  0
  1  6  1  0  0  0  0
  1 20  1  0  0  0  0
  2  4  2  0  0  0  0
  2  7  1  0  0  0  0
  3  4  1  0  0  0  0
  3  5  1  0  0  0  0
  3 16  1  0  0  0  0
  3 17  1  0  0  0  0
  5  8  1  0  0  0  0
  5 18  1  0  0  0  0
  5 19  1  0  0  0  0
  6  7  1  0  0  0  0
  6  9  2  0  0  0  0
  7 10  2  0  0  0  0
  8 11  2  0  0  0  0
  8 21  1  0  0  0  0
  9 12  1  0  0  0  0
  9 22  1  0  0  0  0
 10 13  1  0  0  0  0
 10 23  1  0  0  0  0
 11 14  1  0  0  0  0
 11 24  1  0  0  0  0
 12 13  2  0  0  0  0
 12 25  1  0  0  0  0
 13 28  1  0  0  0  0
 14 15  1  0  0  0  0
 14 26  1  0  0  0  0
 14 27  1  0  0  0  0
 15 29  1  0  0  0  0
 15 30  1  0  0  0  0
 15 31  1  0  0  0  0
M  END
> <PUBCHEM_COMPOUND_CID>
46992163

> <PUBCHEM_COMPOUND_CANONICALIZED>
1

> <PUBCHEM_CACTVS_COMPLEXITY>
213

> <PUBCHEM_CACTVS_HBOND_ACCEPTOR>
1

> <PUBCHEM_CACTVS_HBOND_DONOR>
1

> <PUBCHEM_CACTVS_ROTATABLE_BOND>
4

> <PUBCHEM_CACTVS_SUBSKEYS>
AAADceBzAAAAAAAAAAAAAAAAAAAAAWAAAAAwAAAAAAAAAFgB8AAAHAAQAAAACAiBFwAz0LbJkACgASZiZACCgC2hEqAJmSAwdJiIaKLAmZGUIAhokALIyCcQAAAAAAAAAAAAACAAAAAAAAAAQAAAAAAAAA==

> <PUBCHEM_IUPAC_OPENEYE_NAME>
2-[(Z)-hex-3-enyl]-1H-benzimidazole

> <PUBCHEM_IUPAC_CAS_NAME>
2-[(Z)-hex-3-enyl]-1H-benzimidazole

> <PUBCHEM_IUPAC_NAME>
2-[(Z)-hex-3-enyl]-1H-benzimidazole

> <PUBCHEM_IUPAC_SYSTEMATIC_NAME>
2-[(Z)-hex-3-enyl]-1H-benzimidazole

> <PUBCHEM_IUPAC_TRADITIONAL_NAME>
2-[(Z)-hex-3-enyl]-1H-benzimidazole

> <PUBCHEM_IUPAC_INCHI>
InChI=1S/C13H16N2/c1-2-3-4-5-10-13-14-11-8-6-7-9-12(11)15-13/h3-4,6-9H,2,5,10H2,1H3,(H,14,15)/b4-3-

> <PUBCHEM_IUPAC_INCHIKEY>
VSYMKECPVWOGPM-ARJAWSKDSA-N

> <PUBCHEM_XLOGP3>
3.3

> <PUBCHEM_EXACT_MASS>
200.131349

> <PUBCHEM_MOLECULAR_FORMULA>
C13H16N2

> <PUBCHEM_MOLECULAR_WEIGHT>
200.27954

> <PUBCHEM_OPENEYE_CAN_SMILES>
CCC=CCCC1=NC2=CC=CC=C2N1

> <PUBCHEM_OPENEYE_ISO_SMILES>
CC/C=C\CCC1=NC2=CC=CC=C2N1

> <PUBCHEM_CACTVS_TPSA>
28.7

> <PUBCHEM_MONOISOTOPIC_WEIGHT>
200.131349

> <PUBCHEM_TOTAL_CHARGE>
0

> <PUBCHEM_HEAVY_ATOM_COUNT>
15

> <PUBCHEM_ATOM_DEF_STEREO_COUNT>
0

> <PUBCHEM_ATOM_UDEF_STEREO_COUNT>
0

> <PUBCHEM_BOND_DEF_STEREO_COUNT>
1

> <PUBCHEM_BOND_UDEF_STEREO_COUNT>
0

> <PUBCHEM_ISOTOPIC_ATOM_COUNT>
0

> <PUBCHEM_COMPONENT_COUNT>
1

> <PUBCHEM_CACTVS_TAUTO_COUNT>
2

> <PUBCHEM_COORDINATE_TYPE>
1
5
255

> <PUBCHEM_BONDANNOTATIONS>
1  4  8
1  6  8
10  13  8
12  13  8
2  4  8
2  7  8
6  7  8
6  9  8
7  10  8
9  12  8

$$$$
46993487
  -OEChem-11301217582D

 46 48  0     0  0  0  0  0  0999 V2000
    6.6353   -1.6491    0.0000 O   0  0  0  0  0  0  0  0  0  0  0  0
    6.2781    0.0458    0.0000 N   0  0  0  0  0  0  0  0  0  0  0  0
    4.6783   -3.6710    0.0000 N   0  0  0  0  0  0  0  0  0  0  0  0
    4.6783   -2.0615    0.0000 C   0  0  0  0  0  0  0  0  0  0  0  0
    4.9889   -1.1110    0.0000 C   0  0  0  0  0  0  0  0  0  0  0  0
    3.7320   -2.3662    0.0000 C   0  0  0  0  0  0  0  0  0  0  0  0
    3.7320   -3.3662    0.0000 C   0  0  0  0  0  0  0  0  0  0  0  0
    5.9674   -0.9048    0.0000 C   0  0  0  0  0  0  0  0  0  0  0  0
    5.2619   -2.8662    0.0000 C   0  0  0  0  0  0  0  0  0  0  0  0
    5.6103    0.7901    0.0000 C   0  0  0  0  0  0  0  0  0  0  0  0
    7.2566    0.2520    0.0000 C   0  0  0  0  0  0  0  0  0  0  0  0
    2.8660   -1.8662    0.0000 C   0  0  0  0  0  0  0  0  0  0  0  0
    2.8660   -3.8662    0.0000 C   0  0  0  0  0  0  0  0  0  0  0  0
    2.0000   -2.3662    0.0000 C   0  0  0  0  0  0  0  0  0  0  0  0
    5.9209    1.7406    0.0000 C   0  0  0  0  0  0  0  0  0  0  0  0
    2.0000   -3.3662    0.0000 C   0  0  0  0  0  0  0  0  0  0  0  0
    7.5673    1.2025    0.0000 C   0  0  0  0  0  0  0  0  0  0  0  0
    8.5458    1.4087    0.0000 C   0  0  0  0  0  0  0  0  0  0  0  0
    8.8564    2.3592    0.0000 C   0  0  0  0  0  0  0  0  0  0  0  0
    9.8349    2.5655    0.0000 C   0  0  0  0  0  0  0  0  0  0  0  0
    8.1886    3.1035    0.0000 C   0  0  0  0  0  0  0  0  0  0  0  0
   10.1456    3.5160    0.0000 C   0  0  0  0  0  0  0  0  0  0  0  0
    8.4993    4.0541    0.0000 C   0  0  0  0  0  0  0  0  0  0  0  0
    9.4778    4.2603    0.0000 C   0  0  0  0  0  0  0  0  0  0  0  0
    4.9684   -0.4913    0.0000 H   0  0  0  0  0  0  0  0  0  0  0  0
    4.3751   -1.0236    0.0000 H   0  0  0  0  0  0  0  0  0  0  0  0
    5.8819   -2.8662    0.0000 H   0  0  0  0  0  0  0  0  0  0  0  0
    5.0633    1.0821    0.0000 H   0  0  0  0  0  0  0  0  0  0  0  0
    5.2277    0.3022    0.0000 H   0  0  0  0  0  0  0  0  0  0  0  0
    7.2772   -0.3677    0.0000 H   0  0  0  0  0  0  0  0  0  0  0  0
    7.8704    0.1646    0.0000 H   0  0  0  0  0  0  0  0  0  0  0  0
    4.8709   -4.2603    0.0000 H   0  0  0  0  0  0  0  0  0  0  0  0
    2.8660   -1.2462    0.0000 H   0  0  0  0  0  0  0  0  0  0  0  0
    2.8660   -4.4862    0.0000 H   0  0  0  0  0  0  0  0  0  0  0  0
    1.4631   -2.0562    0.0000 H   0  0  0  0  0  0  0  0  0  0  0  0
    6.5102    1.5480    0.0000 H   0  0  0  0  0  0  0  0  0  0  0  0
    6.1135    2.3299    0.0000 H   0  0  0  0  0  0  0  0  0  0  0  0
    5.3316    1.9332    0.0000 H   0  0  0  0  0  0  0  0  0  0  0  0
    7.1532    1.6640    0.0000 H   0  0  0  0  0  0  0  0  0  0  0  0
    1.4631   -3.6762    0.0000 H   0  0  0  0  0  0  0  0  0  0  0  0
    8.9598    0.9473    0.0000 H   0  0  0  0  0  0  0  0  0  0  0  0
   10.2490    2.1040    0.0000 H   0  0  0  0  0  0  0  0  0  0  0  0
    7.5819    2.9757    0.0000 H   0  0  0  0  0  0  0  0  0  0  0  0
   10.7523    3.6438    0.0000 H   0  0  0  0  0  0  0  0  0  0  0  0
    8.0852    4.5155    0.0000 H   0  0  0  0  0  0  0  0  0  0  0  0
    9.6704    4.8496    0.0000 H   0  0  0  0  0  0  0  0  0  0  0  0
  1  8  2  0  0  0  0
  2  8  1  0  0  0  0
  2 10  1  0  0  0  0
  2 11  1  0  0  0  0
  3  7  1  0  0  0  0
  3  9  1  0  0  0  0
  3 32  1  0  0  0  0
  4  5  1  0  0  0  0
  4  6  1  0  0  0  0
  4  9  2  0  0  0  0
  5  8  1  0  0  0  0
  5 25  1  0  0  0  0
  5 26  1  0  0  0  0
  6  7  1  0  0  0  0
  6 12  2  0  0  0  0
  7 13  2  0  0  0  0
  9 27  1  0  0  0  0
 10 15  1  0  0  0  0
 10 28  1  0  0  0  0
 10 29  1  0  0  0  0
 11 17  1  0  0  0  0
 11 30  1  0  0  0  0
 11 31  1  0  0  0  0
 12 14  1  0  0  0  0
 12 33  1  0  0  0  0
 13 16  1  0  0  0  0
 13 34  1  0  0  0  0
 14 16  2  0  0  0  0
 14 35  1  0  0  0  0
 15 36  1  0  0  0  0
 15 37  1  0  0  0  0
 15 38  1  0  0  0  0
 16 40  1  0  0  0  0
 17 18  2  0  0  0  0
 17 39  1  0  0  0  0
 18 19  1  0  0  0  0
 18 41  1  0  0  0  0
 19 20  2  0  0  0  0
 19 21  1  0  0  0  0
 20 22  1  0  0  0  0
 20 42  1  0  0  0  0
 21 23  2  0  0  0  0
 21 43  1  0  0  0  0
 22 24  2  0  0  0  0
 22 44  1  0  0  0  0
 23 24  1  0  0  0  0
 23 45  1  0  0  0  0
 24 46  1  0  0  0  0
M  END
> <PUBCHEM_COMPOUND_CID>
46993487

> <PUBCHEM_COMPOUND_CANONICALIZED>
1

> <PUBCHEM_CACTVS_COMPLEXITY>
428

> <PUBCHEM_CACTVS_HBOND_ACCEPTOR>
1

> <PUBCHEM_CACTVS_HBOND_DONOR>
1

> <PUBCHEM_CACTVS_ROTATABLE_BOND>
6

> <PUBCHEM_CACTVS_SUBSKEYS>
AAADceB7IAAAAAAAAAAAAAAAAAAAAWAAAAAwYAAAAAAAAFgB9AAAHgAQAAAADAjBngQ+wPPJkACoAzV3VACCgCAxAiAI2aE4ZJgIIPLAlZGEIAhglgDIyAccicCegAAAAAACAAAAAAAAAAQAAAAAAAAAAA==

> <PUBCHEM_IUPAC_OPENEYE_NAME>
N-[(E)-cinnamyl]-N-ethyl-2-(1H-indol-3-yl)acetamide

> <PUBCHEM_IUPAC_CAS_NAME>
N-ethyl-2-(1H-indol-3-yl)-N-[(E)-3-phenylprop-2-enyl]acetamide

> <PUBCHEM_IUPAC_NAME>
N-ethyl-2-(1H-indol-3-yl)-N-[(E)-3-phenylprop-2-enyl]acetamide

> <PUBCHEM_IUPAC_SYSTEMATIC_NAME>
N-ethyl-2-(1H-indol-3-yl)-N-[(E)-3-phenylprop-2-enyl]ethanamide

> <PUBCHEM_IUPAC_TRADITIONAL_NAME>
N-[(E)-cinnamyl]-N-ethyl-2-(1H-indol-3-yl)acetamide

> <PUBCHEM_IUPAC_INCHI>
InChI=1S/C21H22N2O/c1-2-23(14-8-11-17-9-4-3-5-10-17)21(24)15-18-16-22-20-13-7-6-12-19(18)20/h3-13,16,22H,2,14-15H2,1H3/b11-8+

> <PUBCHEM_IUPAC_INCHIKEY>
QSVMTHNVFGTFJT-DHZHZOJOSA-N

> <PUBCHEM_XLOGP3>
3.8

> <PUBCHEM_EXACT_MASS>
318.173213

> <PUBCHEM_MOLECULAR_FORMULA>
C21H22N2O

> <PUBCHEM_MOLECULAR_WEIGHT>
318.41218

> <PUBCHEM_OPENEYE_CAN_SMILES>
CCN(CC=CC1=CC=CC=C1)C(=O)CC2=CNC3=CC=CC=C32

> <PUBCHEM_OPENEYE_ISO_SMILES>
CCN(C/C=C/C1=CC=CC=C1)C(=O)CC2=CNC3=CC=CC=C32

> <PUBCHEM_CACTVS_TPSA>
36.1

> <PUBCHEM_MONOISOTOPIC_WEIGHT>
318.173213

> <PUBCHEM_TOTAL_CHARGE>
0

> <PUBCHEM_HEAVY_ATOM_COUNT>
24

> <PUBCHEM_ATOM_DEF_STEREO_COUNT>
0

> <PUBCHEM_ATOM_UDEF_STEREO_COUNT>
0

> <PUBCHEM_BOND_DEF_STEREO_COUNT>
1

> <PUBCHEM_BOND_UDEF_STEREO_COUNT>
0

> <PUBCHEM_ISOTOPIC_ATOM_COUNT>
0

> <PUBCHEM_COMPONENT_COUNT>
1

> <PUBCHEM_CACTVS_TAUTO_COUNT>
1

> <PUBCHEM_COORDINATE_TYPE>
1
5
255

> <PUBCHEM_BONDANNOTATIONS>
12  14  8
13  16  8
14  16  8
19  20  8
19  21  8
20  22  8
21  23  8
22  24  8
23  24  8
3  7  8
3  9  8
4  6  8
4  9  8
6  12  8
6  7  8
7  13  8

$$$$
