27026623
  -OEChem-11301217412D

 41 42  0     1  0  0  0  0  0999 V2000
    5.4641   -0.8343    0.0000 O   0  0  0  0  0  0  0  0  0  0  0  0
    2.8660   -0.3343    0.0000 N   0  3  0  0  0  0  0  0  0  0  0  0
    6.3301   -0.3343    0.0000 C   0  0  2  0  0  0  0  0  0  0  0  0
    6.3301    0.6657    0.0000 C   0  0  0  0  0  0  0  0  0  0  0  0
    7.1962   -0.8343    0.0000 C   0  0  0  0  0  0  0  0  0  0  0  0
    3.7320   -0.8343    0.0000 C   0  0  0  0  0  0  0  0  0  0  0  0
    7.1962    1.1657    0.0000 C   0  0  0  0  0  0  0  0  0  0  0  0
    8.0622   -0.3343    0.0000 C   0  0  0  0  0  0  0  0  0  0  0  0
    4.5981   -0.3343    0.0000 C   0  0  0  0  0  0  0  0  0  0  0  0
    8.0622    0.6657    0.0000 C   0  0  0  0  0  0  0  0  0  0  0  0
    2.0000    0.1657    0.0000 C   0  0  0  0  0  0  0  0  0  0  0  0
    2.3660   -1.2003    0.0000 C   0  0  0  0  0  0  0  0  0  0  0  0
    3.3660    0.5317    0.0000 C   0  0  0  0  0  0  0  0  0  0  0  0
    8.9561   -0.8690    0.0000 C   0  0  0  0  0  0  0  0  0  0  0  0
    8.9561    1.2003    0.0000 C   0  0  0  0  0  0  0  0  0  0  0  0
    9.8622   -0.3551    0.0000 C   0  0  0  0  0  0  0  0  0  0  0  0
    9.8622    0.6865    0.0000 C   0  0  0  0  0  0  0  0  0  0  0  0
    5.7932   -0.0243    0.0000 H   0  0  0  0  0  0  0  0  0  0  0  0
    6.1181    1.2483    0.0000 H   0  0  0  0  0  0  0  0  0  0  0  0
    5.7196    0.5580    0.0000 H   0  0  0  0  0  0  0  0  0  0  0  0
    6.7976   -1.3093    0.0000 H   0  0  0  0  0  0  0  0  0  0  0  0
    7.5947   -1.3093    0.0000 H   0  0  0  0  0  0  0  0  0  0  0  0
    3.3335   -1.3093    0.0000 H   0  0  0  0  0  0  0  0  0  0  0  0
    4.1306   -1.3093    0.0000 H   0  0  0  0  0  0  0  0  0  0  0  0
    7.5947    1.6406    0.0000 H   0  0  0  0  0  0  0  0  0  0  0  0
    6.7976    1.6406    0.0000 H   0  0  0  0  0  0  0  0  0  0  0  0
    4.9966    0.1406    0.0000 H   0  0  0  0  0  0  0  0  0  0  0  0
    4.1996    0.1406    0.0000 H   0  0  0  0  0  0  0  0  0  0  0  0
    3.9030    0.2217    0.0000 H   0  0  0  0  0  0  0  0  0  0  0  0
    3.6760    1.0686    0.0000 H   0  0  0  0  0  0  0  0  0  0  0  0
    2.8291    0.8417    0.0000 H   0  0  0  0  0  0  0  0  0  0  0  0
    1.8291   -0.8903    0.0000 H   0  0  0  0  0  0  0  0  0  0  0  0
    2.0560   -1.7373    0.0000 H   0  0  0  0  0  0  0  0  0  0  0  0
    2.3100    0.7026    0.0000 H   0  0  0  0  0  0  0  0  0  0  0  0
    1.4631    0.4757    0.0000 H   0  0  0  0  0  0  0  0  0  0  0  0
    1.6900   -0.3713    0.0000 H   0  0  0  0  0  0  0  0  0  0  0  0
    2.9030   -1.5103    0.0000 H   0  0  0  0  0  0  0  0  0  0  0  0
    8.9490   -1.4889    0.0000 H   0  0  0  0  0  0  0  0  0  0  0  0
    8.9490    1.8203    0.0000 H   0  0  0  0  0  0  0  0  0  0  0  0
   10.3979   -0.6672    0.0000 H   0  0  0  0  0  0  0  0  0  0  0  0
   10.3979    0.9986    0.0000 H   0  0  0  0  0  0  0  0  0  0  0  0
  3  1  1  6  0  0  0
  1  9  1  0  0  0  0
  2  6  1  0  0  0  0
  2 11  1  0  0  0  0
  2 12  1  0  0  0  0
  2 13  1  0  0  0  0
  3  4  1  0  0  0  0
  3  5  1  0  0  0  0
  3 18  1  0  0  0  0
  4  7  1  0  0  0  0
  4 19  1  0  0  0  0
  4 20  1  0  0  0  0
  5  8  1  0  0  0  0
  5 21  1  0  0  0  0
  5 22  1  0  0  0  0
  6  9  1  0  0  0  0
  6 23  1  0  0  0  0
  6 24  1  0  0  0  0
  7 10  1  0  0  0  0
  7 25  1  0  0  0  0
  7 26  1  0  0  0  0
  8 10  1  0  0  0  0
  8 14  2  0  0  0  0
  9 27  1  0  0  0  0
  9 28  1  0  0  0  0
 10 15  2  0  0  0  0
 11 34  1  0  0  0  0
 11 35  1  0  0  0  0
 11 36  1  0  0  0  0
 12 32  1  0  0  0  0
 12 33  1  0  0  0  0
 12 37  1  0  0  0  0
 13 29  1  0  0  0  0
 13 30  1  0  0  0  0
 13 31  1  0  0  0  0
 14 16  1  0  0  0  0
 14 38  1  0  0  0  0
 15 17  1  0  0  0  0
 15 39  1  0  0  0  0
 16 17  2  0  0  0  0
 16 40  1  0  0  0  0
 17 41  1  0  0  0  0
M  CHG  1   2   1
M  END
> <PUBCHEM_COMPOUND_CID>
27026623

> <PUBCHEM_COMPOUND_CANONICALIZED>
1

> <PUBCHEM_CACTVS_COMPLEXITY>
234

> <PUBCHEM_CACTVS_HBOND_ACCEPTOR>
1

> <PUBCHEM_CACTVS_HBOND_DONOR>
0

> <PUBCHEM_CACTVS_ROTATABLE_BOND>
4

> <PUBCHEM_CACTVS_SUBSKEYS>
AAADceByIAAAAAAAAAAAAAAAAAAAAAAAAAAwYAAAAAAAAADBAAAAHgAAAAAADBThmAYyAIMABACAAiBCAAACAAAgAAAIiAAIAIgKICKAERCDIAAkwAEYiAeAwLAOgAAAAAAQAABAAAIAACAAAAAAAAAAAA==

> <PUBCHEM_IUPAC_OPENEYE_NAME>
trimethyl-[2-[(2R)-tetralin-2-yl]oxyethyl]ammonium

> <PUBCHEM_IUPAC_CAS_NAME>
trimethyl-[2-[[(2R)-1,2,3,4-tetrahydronaphthalen-2-yl]oxy]ethyl]ammonium

> <PUBCHEM_IUPAC_NAME>
trimethyl-[2-[[(2R)-1,2,3,4-tetrahydronaphthalen-2-yl]oxy]ethyl]azanium

> <PUBCHEM_IUPAC_SYSTEMATIC_NAME>
trimethyl-[2-[[(2R)-1,2,3,4-tetrahydronaphthalen-2-yl]oxy]ethyl]azanium

> <PUBCHEM_IUPAC_TRADITIONAL_NAME>
trimethyl-[2-[(2R)-tetralin-2-yl]oxyethyl]ammonium

> <PUBCHEM_IUPAC_INCHI>
InChI=1S/C15H24NO/c1-16(2,3)10-11-17-15-9-8-13-6-4-5-7-14(13)12-15/h4-7,15H,8-12H2,1-3H3/q+1/t15-/m1/s1

> <PUBCHEM_IUPAC_INCHIKEY>
GYVDHBJFAIIIFO-OAHLLOKOSA-N

> <PUBCHEM_XLOGP3>
2.9

> <PUBCHEM_EXACT_MASS>
234.185789

> <PUBCHEM_MOLECULAR_FORMULA>
C15H24NO+

> <PUBCHEM_MOLECULAR_WEIGHT>
234.35716

> <PUBCHEM_OPENEYE_CAN_SMILES>
C[N+](C)(C)CCOC1CCC2=CC=CC=C2C1

> <PUBCHEM_OPENEYE_ISO_SMILES>
C[N+](C)(C)CCO[C@@H]1CCC2=CC=CC=C2C1

> <PUBCHEM_CACTVS_TPSA>
9.2

> <PUBCHEM_MONOISOTOPIC_WEIGHT>
234.185789

> <PUBCHEM_TOTAL_CHARGE>
1

> <PUBCHEM_HEAVY_ATOM_COUNT>
17

> <PUBCHEM_ATOM_DEF_STEREO_COUNT>
1

> <PUBCHEM_ATOM_UDEF_STEREO_COUNT>
0

> <PUBCHEM_BOND_DEF_STEREO_COUNT>
0

> <PUBCHEM_BOND_UDEF_STEREO_COUNT>
0

> <PUBCHEM_ISOTOPIC_ATOM_COUNT>
0

> <PUBCHEM_COMPONENT_COUNT>
1

> <PUBCHEM_CACTVS_TAUTO_COUNT>
1

> <PUBCHEM_COORDINATE_TYPE>
1
5
255

> <PUBCHEM_BONDANNOTATIONS>
3  1  6
10  15  8
14  16  8
15  17  8
16  17  8
8  10  8
8  14  8

$$$$
27026624
  -OEChem-11301217412D

 41 42  0     1  0  0  0  0  0999 V2000
    5.4641   -0.8343    0.0000 O   0  0  0  0  0  0  0  0  0  0  0  0
    2.8660   -0.3343    0.0000 N   0  3  0  0  0  0  0  0  0  0  0  0
    6.3301   -0.3343    0.0000 C   0  0  1  0  0  0  0  0  0  0  0  0
    6.3301    0.6657    0.0000 C   0  0  0  0  0  0  0  0  0  0  0  0
    7.1962   -0.8343    0.0000 C   0  0  0  0  0  0  0  0  0  0  0  0
    3.7320   -0.8343    0.0000 C   0  0  0  0  0  0  0  0  0  0  0  0
    7.1962    1.1657    0.0000 C   0  0  0  0  0  0  0  0  0  0  0  0
    8.0622   -0.3343    0.0000 C   0  0  0  0  0  0  0  0  0  0  0  0
    4.5981   -0.3343    0.0000 C   0  0  0  0  0  0  0  0  0  0  0  0
    8.0622    0.6657    0.0000 C   0  0  0  0  0  0  0  0  0  0  0  0
    2.0000    0.1657    0.0000 C   0  0  0  0  0  0  0  0  0  0  0  0
    2.3660   -1.2003    0.0000 C   0  0  0  0  0  0  0  0  0  0  0  0
    3.3660    0.5317    0.0000 C   0  0  0  0  0  0  0  0  0  0  0  0
    8.9561   -0.8690    0.0000 C   0  0  0  0  0  0  0  0  0  0  0  0
    8.9561    1.2003    0.0000 C   0  0  0  0  0  0  0  0  0  0  0  0
    9.8622   -0.3551    0.0000 C   0  0  0  0  0  0  0  0  0  0  0  0
    9.8622    0.6865    0.0000 C   0  0  0  0  0  0  0  0  0  0  0  0
    5.7932   -0.0243    0.0000 H   0  0  0  0  0  0  0  0  0  0  0  0
    6.1181    1.2483    0.0000 H   0  0  0  0  0  0  0  0  0  0  0  0
    5.7196    0.5580    0.0000 H   0  0  0  0  0  0  0  0  0  0  0  0
    6.7976   -1.3093    0.0000 H   0  0  0  0  0  0  0  0  0  0  0  0
    7.5947   -1.3093    0.0000 H   0  0  0  0  0  0  0  0  0  0  0  0
    3.3335   -1.3093    0.0000 H   0  0  0  0  0  0  0  0  0  0  0  0
    4.1306   -1.3093    0.0000 H   0  0  0  0  0  0  0  0  0  0  0  0
    7.5947    1.6406    0.0000 H   0  0  0  0  0  0  0  0  0  0  0  0
    6.7976    1.6406    0.0000 H   0  0  0  0  0  0  0  0  0  0  0  0
    4.9966    0.1406    0.0000 H   0  0  0  0  0  0  0  0  0  0  0  0
    4.1996    0.1406    0.0000 H   0  0  0  0  0  0  0  0  0  0  0  0
    3.9030    0.2217    0.0000 H   0  0  0  0  0  0  0  0  0  0  0  0
    3.6760    1.0686    0.0000 H   0  0  0  0  0  0  0  0  0  0  0  0
    2.8291    0.8417    0.0000 H   0  0  0  0  0  0  0  0  0  0  0  0
    1.8291   -0.8903    0.0000 H   0  0  0  0  0  0  0  0  0  0  0  0
    2.0560   -1.7373    0.0000 H   0  0  0  0  0  0  0  0  0  0  0  0
    2.3100    0.7026    0.0000 H   0  0  0  0  0  0  0  0  0  0  0  0
    1.4631    0.4757    0.0000 H   0  0  0  0  0  0  0  0  0  0  0  0
    1.6900   -0.3713    0.0000 H   0  0  0  0  0  0  0  0  0  0  0  0
    2.9030   -1.5103    0.0000 H   0  0  0  0  0  0  0  0  0  0  0  0
    8.9490   -1.4889    0.0000 H   0  0  0  0  0  0  0  0  0  0  0  0
    8.9490    1.8203    0.0000 H   0  0  0  0  0  0  0  0  0  0  0  0
   10.3979   -0.6672    0.0000 H   0  0  0  0  0  0  0  0  0  0  0  0
   10.3979    0.9986    0.0000 H   0  0  0  0  0  0  0  0  0  0  0  0
  3  1  1  1  0  0  0
  1  9  1  0  0  0  0
  2  6  1  0  0  0  0
  2 11  1  0  0  0  0
  2 12  1  0  0  0  0
  2 13  1  0  0  0  0
  3  4  1  0  0  0  0
  3  5  1  0  0  0  0
  3 18  1  0  0  0  0
  4  7  1  0  0  0  0
  4 19  1  0  0  0  0
  4 20  1  0  0  0  0
  5  8  1  0  0  0  0
  5 21  1  0  0  0  0
  5 22  1  0  0  0  0
  6  9  1  0  0  0  0
  6 23  1  0  0  0  0
  6 24  1  0  0  0  0
  7 10  1  0  0  0  0
  7 25  1  0  0  0  0
  7 26  1  0  0  0  0
  8 10  1  0  0  0  0
  8 14  2  0  0  0  0
  9 27  1  0  0  0  0
  9 28  1  0  0  0  0
 10 15  2  0  0  0  0
 11 34  1  0  0  0  0
 11 35  1  0  0  0  0
 11 36  1  0  0  0  0
 12 32  1  0  0  0  0
 12 33  1  0  0  0  0
 12 37  1  0  0  0  0
 13 29  1  0  0  0  0
 13 30  1  0  0  0  0
 13 31  1  0  0  0  0
 14 16  1  0  0  0  0
 14 38  1  0  0  0  0
 15 17  1  0  0  0  0
 15 39  1  0  0  0  0
 16 17  2  0  0  0  0
 16 40  1  0  0  0  0
 17 41  1  0  0  0  0
M  CHG  1   2   1
M  END
> <PUBCHEM_COMPOUND_CID>
27026624

> <PUBCHEM_COMPOUND_CANONICALIZED>
1

> <PUBCHEM_CACTVS_COMPLEXITY>
234

> <PUBCHEM_CACTVS_HBOND_ACCEPTOR>
1

> <PUBCHEM_CACTVS_HBOND_DONOR>
0

> <PUBCHEM_CACTVS_ROTATABLE_BOND>
4

> <PUBCHEM_CACTVS_SUBSKEYS>
AAADceByIAAAAAAAAAAAAAAAAAAAAAAAAAAwYAAAAAAAAADBAAAAHgAAAAAADBThmAYyAIMABACAAiBCAAACAAAgAAAIiAAIAIgKICKAERCDIAAkwAEYiAeAwLAOgAAAAAAQAABAAAIAACAAAAAAAAAAAA==

> <PUBCHEM_IUPAC_OPENEYE_NAME>
trimethyl-[2-[(2S)-tetralin-2-yl]oxyethyl]ammonium

> <PUBCHEM_IUPAC_CAS_NAME>
trimethyl-[2-[[(2S)-1,2,3,4-tetrahydronaphthalen-2-yl]oxy]ethyl]ammonium

> <PUBCHEM_IUPAC_NAME>
trimethyl-[2-[[(2S)-1,2,3,4-tetrahydronaphthalen-2-yl]oxy]ethyl]azanium

> <PUBCHEM_IUPAC_SYSTEMATIC_NAME>
trimethyl-[2-[[(2S)-1,2,3,4-tetrahydronaphthalen-2-yl]oxy]ethyl]azanium

> <PUBCHEM_IUPAC_TRADITIONAL_NAME>
trimethyl-[2-[(2S)-tetralin-2-yl]oxyethyl]ammonium

> <PUBCHEM_IUPAC_INCHI>
InChI=1S/C15H24NO/c1-16(2,3)10-11-17-15-9-8-13-6-4-5-7-14(13)12-15/h4-7,15H,8-12H2,1-3H3/q+1/t15-/m0/s1

> <PUBCHEM_IUPAC_INCHIKEY>
GYVDHBJFAIIIFO-HNNXBMFYSA-N

> <PUBCHEM_XLOGP3>
2.9

> <PUBCHEM_EXACT_MASS>
234.185789

> <PUBCHEM_MOLECULAR_FORMULA>
C15H24NO+

> <PUBCHEM_MOLECULAR_WEIGHT>
234.35716

> <PUBCHEM_OPENEYE_CAN_SMILES>
C[N+](C)(C)CCOC1CCC2=CC=CC=C2C1

> <PUBCHEM_OPENEYE_ISO_SMILES>
C[N+](C)(C)CCO[C@H]1CCC2=CC=CC=C2C1

> <PUBCHEM_CACTVS_TPSA>
9.2

> <PUBCHEM_MONOISOTOPIC_WEIGHT>
234.185789

> <PUBCHEM_TOTAL_CHARGE>
1

> <PUBCHEM_HEAVY_ATOM_COUNT>
17

> <PUBCHEM_ATOM_DEF_STEREO_COUNT>
1

> <PUBCHEM_ATOM_UDEF_STEREO_COUNT>
0

> <PUBCHEM_BOND_DEF_STEREO_COUNT>
0

> <PUBCHEM_BOND_UDEF_STEREO_COUNT>
0

> <PUBCHEM_ISOTOPIC_ATOM_COUNT>
0

> <PUBCHEM_COMPONENT_COUNT>
1

> <PUBCHEM_CACTVS_TAUTO_COUNT>
1

> <PUBCHEM_COORDINATE_TYPE>
1
5
255

> <PUBCHEM_BONDANNOTATIONS>
3  1  5
10  15  8
14  16  8
15  17  8
16  17  8
8  10  8
8  14  8

$$$$
27036650
  -OEChem-11301217412D

 34 35  0     0  0  0  0  0  0999 V2000
    2.0000   -1.2500    0.0000 Cl  0  0  0  0  0  0  0  0  0  0  0  0
    3.7320   -4.2500    0.0000 Cl  0  0  0  0  0  0  0  0  0  0  0  0
    5.4641   -0.2500    0.0000 O   0  0  0  0  0  0  0  0  0  0  0  0
    4.5981    1.2500    0.0000 N   0  0  0  0  0  0  0  0  0  0  0  0
    3.7320   -0.2500    0.0000 N   0  0  0  0  0  0  0  0  0  0  0  0
    5.4641    1.7500    0.0000 C   0  0  0  0  0  0  0  0  0  0  0  0
    6.3301    3.2500    0.0000 C   0  0  0  0  0  0  0  0  0  0  0  0
    7.1962    1.7500    0.0000 C   0  0  0  0  0  0  0  0  0  0  0  0
    6.3301    1.2500    0.0000 C   0  0  0  0  0  0  0  0  0  0  0  0
    5.4641    2.7500    0.0000 C   0  0  0  0  0  0  0  0  0  0  0  0
    7.1962    2.7500    0.0000 C   0  0  0  0  0  0  0  0  0  0  0  0
    6.3301    4.2500    0.0000 C   0  0  0  0  0  0  0  0  0  0  0  0
    8.0622    1.2500    0.0000 C   0  0  0  0  0  0  0  0  0  0  0  0
    3.7320   -1.2500    0.0000 C   0  0  0  0  0  0  0  0  0  0  0  0
    4.5981    0.2500    0.0000 C   0  0  0  0  0  0  0  0  0  0  0  0
    2.8660   -1.7500    0.0000 C   0  0  0  0  0  0  0  0  0  0  0  0
    4.5981   -1.7500    0.0000 C   0  0  0  0  0  0  0  0  0  0  0  0
    2.8660   -2.7500    0.0000 C   0  0  0  0  0  0  0  0  0  0  0  0
    4.5981   -2.7500    0.0000 C   0  0  0  0  0  0  0  0  0  0  0  0
    3.7320   -3.2500    0.0000 C   0  0  0  0  0  0  0  0  0  0  0  0
    6.3301    0.6300    0.0000 H   0  0  0  0  0  0  0  0  0  0  0  0
    4.9272    3.0600    0.0000 H   0  0  0  0  0  0  0  0  0  0  0  0
    7.7331    3.0600    0.0000 H   0  0  0  0  0  0  0  0  0  0  0  0
    4.0611    1.5600    0.0000 H   0  0  0  0  0  0  0  0  0  0  0  0
    6.9501    4.2500    0.0000 H   0  0  0  0  0  0  0  0  0  0  0  0
    6.3301    4.8700    0.0000 H   0  0  0  0  0  0  0  0  0  0  0  0
    5.7101    4.2500    0.0000 H   0  0  0  0  0  0  0  0  0  0  0  0
    7.7522    0.7131    0.0000 H   0  0  0  0  0  0  0  0  0  0  0  0
    8.5991    0.9400    0.0000 H   0  0  0  0  0  0  0  0  0  0  0  0
    8.3722    1.7869    0.0000 H   0  0  0  0  0  0  0  0  0  0  0  0
    3.1951    0.0600    0.0000 H   0  0  0  0  0  0  0  0  0  0  0  0
    5.1350   -1.4400    0.0000 H   0  0  0  0  0  0  0  0  0  0  0  0
    2.3291   -3.0600    0.0000 H   0  0  0  0  0  0  0  0  0  0  0  0
    5.1350   -3.0600    0.0000 H   0  0  0  0  0  0  0  0  0  0  0  0
  1 16  1  0  0  0  0
  2 20  1  0  0  0  0
  3 15  2  0  0  0  0
  4  6  1  0  0  0  0
  4 15  1  0  0  0  0
  4 24  1  0  0  0  0
  5 14  1  0  0  0  0
  5 15  1  0  0  0  0
  5 31  1  0  0  0  0
  6  9  2  0  0  0  0
  6 10  1  0  0  0  0
  7 10  2  0  0  0  0
  7 11  1  0  0  0  0
  7 12  1  0  0  0  0
  8  9  1  0  0  0  0
  8 11  2  0  0  0  0
  8 13  1  0  0  0  0
  9 21  1  0  0  0  0
 10 22  1  0  0  0  0
 11 23  1  0  0  0  0
 12 25  1  0  0  0  0
 12 26  1  0  0  0  0
 12 27  1  0  0  0  0
 13 28  1  0  0  0  0
 13 29  1  0  0  0  0
 13 30  1  0  0  0  0
 14 16  2  0  0  0  0
 14 17  1  0  0  0  0
 16 18  1  0  0  0  0
 17 19  2  0  0  0  0
 17 32  1  0  0  0  0
 18 20  2  0  0  0  0
 18 33  1  0  0  0  0
 19 20  1  0  0  0  0
 19 34  1  0  0  0  0
M  END
> <PUBCHEM_COMPOUND_CID>
27036650

> <PUBCHEM_COMPOUND_CANONICALIZED>
1

> <PUBCHEM_CACTVS_COMPLEXITY>
330

> <PUBCHEM_CACTVS_HBOND_ACCEPTOR>
1

> <PUBCHEM_CACTVS_HBOND_DONOR>
2

> <PUBCHEM_CACTVS_ROTATABLE_BOND>
2

> <PUBCHEM_CACTVS_SUBSKEYS>
AAADccBzIAAGAAAAAAAAAAAAAAAAAAAAAAAwYAAAAAAAAAABQAAAHgIQAAAADAqBGCAzwILAAACIAiRCUACCAAAhBwAIiAAAZoiIICLBk5HEIAholAJIyCcQgEAOAABCQACAABAAAISAAQAAIAAAAAAAAA==

> <PUBCHEM_IUPAC_OPENEYE_NAME>
1-(2,4-dichlorophenyl)-3-(3,5-dimethylphenyl)urea

> <PUBCHEM_IUPAC_CAS_NAME>
1-(2,4-dichlorophenyl)-3-(3,5-dimethylphenyl)urea

> <PUBCHEM_IUPAC_NAME>
1-(2,4-dichlorophenyl)-3-(3,5-dimethylphenyl)urea

> <PUBCHEM_IUPAC_SYSTEMATIC_NAME>
1-(2,4-dichlorophenyl)-3-(3,5-dimethylphenyl)urea

> <PUBCHEM_IUPAC_TRADITIONAL_NAME>
1-(2,4-dichlorophenyl)-3-(3,5-dimethylphenyl)urea

> <PUBCHEM_IUPAC_INCHI>
InChI=1S/C15H14Cl2N2O/c1-9-5-10(2)7-12(6-9)18-15(20)19-14-4-3-11(16)8-13(14)17/h3-8H,1-2H3,(H2,18,19,20)

> <PUBCHEM_IUPAC_INCHIKEY>
JOZMRXZBUFRVAS-UHFFFAOYSA-N

> <PUBCHEM_XLOGP3>
4.3

> <PUBCHEM_EXACT_MASS>
308.048318

> <PUBCHEM_MOLECULAR_FORMULA>
C15H14Cl2N2O

> <PUBCHEM_MOLECULAR_WEIGHT>
309.19046

> <PUBCHEM_OPENEYE_CAN_SMILES>
CC1=CC(=CC(=C1)NC(=O)NC2=C(C=C(C=C2)Cl)Cl)C

> <PUBCHEM_OPENEYE_ISO_SMILES>
CC1=CC(=CC(=C1)NC(=O)NC2=C(C=C(C=C2)Cl)Cl)C

> <PUBCHEM_CACTVS_TPSA>
41.1

> <PUBCHEM_MONOISOTOPIC_WEIGHT>
308.048318

> <PUBCHEM_TOTAL_CHARGE>
0

> <PUBCHEM_HEAVY_ATOM_COUNT>
20

> <PUBCHEM_ATOM_DEF_STEREO_COUNT>
0

> <PUBCHEM_ATOM_UDEF_STEREO_COUNT>
0

> <PUBCHEM_BOND_DEF_STEREO_COUNT>
0

> <PUBCHEM_BOND_UDEF_STEREO_COUNT>
0

> <PUBCHEM_ISOTOPIC_ATOM_COUNT>
0

> <PUBCHEM_COMPONENT_COUNT>
1

> <PUBCHEM_CACTVS_TAUTO_COUNT>
3

> <PUBCHEM_COORDINATE_TYPE>
1
5
255

> <PUBCHEM_BONDANNOTATIONS>
14  16  8
14  17  8
16  18  8
17  19  8
18  20  8
19  20  8
6  10  8
6  9  8
7  10  8
7  11  8
8  11  8
8  9  8

$$$$
27047271
  -OEChem-11301217412D

 25 25  0     0  0  0  0  0  0999 V2000
    2.0000   -0.7685    0.0000 Br  0  0  0  0  0  0  0  0  0  0  0  0
    3.7320    0.2315    0.0000 O   0  0  0  0  0  0  0  0  0  0  0  0
    5.4641    2.2315    0.0000 N   0  3  0  0  0  0  0  0  0  0  0  0
    4.5981    1.7315    0.0000 C   0  0  0  0  0  0  0  0  0  0  0  0
    4.5981    0.7315    0.0000 C   0  0  0  0  0  0  0  0  0  0  0  0
    6.3301    2.7315    0.0000 C   0  0  0  0  0  0  0  0  0  0  0  0
    3.7320   -0.7685    0.0000 C   0  0  0  0  0  0  0  0  0  0  0  0
    2.8660   -1.2685    0.0000 C   0  0  0  0  0  0  0  0  0  0  0  0
    4.5981   -1.2685    0.0000 C   0  0  0  0  0  0  0  0  0  0  0  0
    2.8660   -2.2685    0.0000 C   0  0  0  0  0  0  0  0  0  0  0  0
    4.5981   -2.2685    0.0000 C   0  0  0  0  0  0  0  0  0  0  0  0
    3.7320   -2.7685    0.0000 C   0  0  0  0  0  0  0  0  0  0  0  0
    4.3860    2.3141    0.0000 H   0  0  0  0  0  0  0  0  0  0  0  0
    3.9875    1.6239    0.0000 H   0  0  0  0  0  0  0  0  0  0  0  0
    5.1541    2.7685    0.0000 H   0  0  0  0  0  0  0  0  0  0  0  0
    5.7741    1.6946    0.0000 H   0  0  0  0  0  0  0  0  0  0  0  0
    4.8101    0.1489    0.0000 H   0  0  0  0  0  0  0  0  0  0  0  0
    5.2087    0.8392    0.0000 H   0  0  0  0  0  0  0  0  0  0  0  0
    6.6401    2.1946    0.0000 H   0  0  0  0  0  0  0  0  0  0  0  0
    6.8671    3.0415    0.0000 H   0  0  0  0  0  0  0  0  0  0  0  0
    6.0201    3.2685    0.0000 H   0  0  0  0  0  0  0  0  0  0  0  0
    5.1350   -0.9585    0.0000 H   0  0  0  0  0  0  0  0  0  0  0  0
    2.3291   -2.5785    0.0000 H   0  0  0  0  0  0  0  0  0  0  0  0
    5.1350   -2.5785    0.0000 H   0  0  0  0  0  0  0  0  0  0  0  0
    3.7320   -3.3885    0.0000 H   0  0  0  0  0  0  0  0  0  0  0  0
  1  8  1  0  0  0  0
  2  5  1  0  0  0  0
  2  7  1  0  0  0  0
  3  4  1  0  0  0  0
  3  6  1  0  0  0  0
  3 15  1  0  0  0  0
  3 16  1  0  0  0  0
  4  5  1  0  0  0  0
  4 13  1  0  0  0  0
  4 14  1  0  0  0  0
  5 17  1  0  0  0  0
  5 18  1  0  0  0  0
  6 19  1  0  0  0  0
  6 20  1  0  0  0  0
  6 21  1  0  0  0  0
  7  8  1  0  0  0  0
  7  9  2  0  0  0  0
  8 10  2  0  0  0  0
  9 11  1  0  0  0  0
  9 22  1  0  0  0  0
 10 12  1  0  0  0  0
 10 23  1  0  0  0  0
 11 12  2  0  0  0  0
 11 24  1  0  0  0  0
 12 25  1  0  0  0  0
M  CHG  1   3   1
M  END
> <PUBCHEM_COMPOUND_CID>
27047271

> <PUBCHEM_COMPOUND_CANONICALIZED>
1

> <PUBCHEM_CACTVS_COMPLEXITY>
121

> <PUBCHEM_CACTVS_HBOND_ACCEPTOR>
1

> <PUBCHEM_CACTVS_HBOND_DONOR>
1

> <PUBCHEM_CACTVS_ROTATABLE_BOND>
4

> <PUBCHEM_CACTVS_SUBSKEYS>
AAADccByIAAAEAAAAAAAAAAAAAAAAAAAAAAwAAAAAAAAAAABAAAAHgBQAAABqAThkAYyBoLABACAACBCAAACCAAgIAQIiIAOCKgOJiKEMRqDOCCk0BEYqheAQAAAAAAAAAAABAAAAAAAAAAIAAAAAAAAAA==

> <PUBCHEM_IUPAC_OPENEYE_NAME>
2-(2-bromophenoxy)ethyl-methyl-ammonium

> <PUBCHEM_IUPAC_CAS_NAME>
2-(2-bromophenoxy)ethyl-methylammonium

> <PUBCHEM_IUPAC_NAME>
2-(2-bromophenoxy)ethyl-methylazanium

> <PUBCHEM_IUPAC_SYSTEMATIC_NAME>
2-(2-bromanylphenoxy)ethyl-methyl-azanium

> <PUBCHEM_IUPAC_TRADITIONAL_NAME>
2-(2-bromophenoxy)ethyl-methyl-ammonium

> <PUBCHEM_IUPAC_INCHI>
InChI=1S/C9H12BrNO/c1-11-6-7-12-9-5-3-2-4-8(9)10/h2-5,11H,6-7H2,1H3/p+1

> <PUBCHEM_IUPAC_INCHIKEY>
UYEOHCQQNKXAPC-UHFFFAOYSA-O

> <PUBCHEM_XLOGP3>
2.4

> <PUBCHEM_EXACT_MASS>
230.018051

> <PUBCHEM_MOLECULAR_FORMULA>
C9H13BrNO+

> <PUBCHEM_MOLECULAR_WEIGHT>
231.10962

> <PUBCHEM_OPENEYE_CAN_SMILES>
C[NH2+]CCOC1=CC=CC=C1Br

> <PUBCHEM_OPENEYE_ISO_SMILES>
C[NH2+]CCOC1=CC=CC=C1Br

> <PUBCHEM_CACTVS_TPSA>
25.8

> <PUBCHEM_MONOISOTOPIC_WEIGHT>
230.018051

> <PUBCHEM_TOTAL_CHARGE>
1

> <PUBCHEM_HEAVY_ATOM_COUNT>
12

> <PUBCHEM_ATOM_DEF_STEREO_COUNT>
0

> <PUBCHEM_ATOM_UDEF_STEREO_COUNT>
0

> <PUBCHEM_BOND_DEF_STEREO_COUNT>
0

> <PUBCHEM_BOND_UDEF_STEREO_COUNT>
0

> <PUBCHEM_ISOTOPIC_ATOM_COUNT>
0

> <PUBCHEM_COMPONENT_COUNT>
1

> <PUBCHEM_CACTVS_TAUTO_COUNT>
1

> <PUBCHEM_COORDINATE_TYPE>
1
5
255

> <PUBCHEM_BONDANNOTATIONS>
10  12  8
11  12  8
7  8  8
7  9  8
8  10  8
9  11  8

$$$$
