53615338
  -OEChem-11301218052D

 27 28  0     0  0  0  0  0  0999 V2000
    2.0000   -0.6970    0.0000 Br  0  0  0  0  0  0  0  0  0  0  0  0
    5.4641   -1.6970    0.0000 O   0  0  0  0  0  0  0  0  0  0  0  0
    9.0084    1.1077    0.0000 N   0  0  0  0  0  0  0  0  0  0  0  0
    4.5981   -0.1970    0.0000 N   0  0  0  0  0  0  0  0  0  0  0  0
    8.0622   -0.1970    0.0000 C   0  0  0  0  0  0  0  0  0  0  0  0
    8.0622    0.8030    0.0000 C   0  0  0  0  0  0  0  0  0  0  0  0
    6.3301   -0.1970    0.0000 C   0  0  0  0  0  0  0  0  0  0  0  0
    7.1962   -0.6970    0.0000 C   0  0  0  0  0  0  0  0  0  0  0  0
    7.1962    1.3030    0.0000 C   0  0  0  0  0  0  0  0  0  0  0  0
    9.0084   -0.5018    0.0000 C   0  0  0  0  0  0  0  0  0  0  0  0
    6.3301    0.8030    0.0000 C   0  0  0  0  0  0  0  0  0  0  0  0
    9.5920    0.3030    0.0000 C   0  0  0  0  0  0  0  0  0  0  0  0
    5.4641   -0.6970    0.0000 C   0  0  0  0  0  0  0  0  0  0  0  0
    3.7320   -0.6970    0.0000 C   0  0  0  0  0  0  0  0  0  0  0  0
    2.8660   -0.1970    0.0000 C   0  0  0  0  0  0  0  0  0  0  0  0
    2.8660    0.8030    0.0000 C   0  0  0  0  0  0  0  0  0  0  0  0
    7.1962   -1.3170    0.0000 H   0  0  0  0  0  0  0  0  0  0  0  0
    7.1962    1.9230    0.0000 H   0  0  0  0  0  0  0  0  0  0  0  0
    9.2010   -1.0911    0.0000 H   0  0  0  0  0  0  0  0  0  0  0  0
    5.7932    1.1130    0.0000 H   0  0  0  0  0  0  0  0  0  0  0  0
    9.2010    1.6970    0.0000 H   0  0  0  0  0  0  0  0  0  0  0  0
   10.2120    0.3030    0.0000 H   0  0  0  0  0  0  0  0  0  0  0  0
    4.5981    0.4230    0.0000 H   0  0  0  0  0  0  0  0  0  0  0  0
    3.3335   -1.1720    0.0000 H   0  0  0  0  0  0  0  0  0  0  0  0
    4.1306   -1.1720    0.0000 H   0  0  0  0  0  0  0  0  0  0  0  0
    3.4030    1.1130    0.0000 H   0  0  0  0  0  0  0  0  0  0  0  0
    2.3291    1.1130    0.0000 H   0  0  0  0  0  0  0  0  0  0  0  0
  1 15  1  0  0  0  0
  2 13  2  0  0  0  0
  3  6  1  0  0  0  0
  3 12  1  0  0  0  0
  3 21  1  0  0  0  0
  4 13  1  0  0  0  0
  4 14  1  0  0  0  0
  4 23  1  0  0  0  0
  5  6  2  0  0  0  0
  5  8  1  0  0  0  0
  5 10  1  0  0  0  0
  6  9  1  0  0  0  0
  7  8  2  0  0  0  0
  7 11  1  0  0  0  0
  7 13  1  0  0  0  0
  8 17  1  0  0  0  0
  9 11  2  0  0  0  0
  9 18  1  0  0  0  0
 10 12  2  0  0  0  0
 10 19  1  0  0  0  0
 11 20  1  0  0  0  0
 12 22  1  0  0  0  0
 14 15  1  0  0  0  0
 14 24  1  0  0  0  0
 14 25  1  0  0  0  0
 15 16  2  0  0  0  0
 16 26  1  0  0  0  0
 16 27  1  0  0  0  0
M  END
> <PUBCHEM_COMPOUND_CID>
53615338

> <PUBCHEM_COMPOUND_CANONICALIZED>
1

> <PUBCHEM_CACTVS_COMPLEXITY>
293

> <PUBCHEM_CACTVS_HBOND_ACCEPTOR>
1

> <PUBCHEM_CACTVS_HBOND_DONOR>
2

> <PUBCHEM_CACTVS_ROTATABLE_BOND>
3

> <PUBCHEM_CACTVS_SUBSKEYS>
AAADccBzIAAAEAAAAAAAAAAAAAAAAWAAAAAwAAAAAAAAAFgB8AAAHgBQAAABjAjBngQ8wPLJkACoAzV3VACCgCA1AiAI2aE4ZNgIIPLAlZGEIQhglgDIyYcYicCeCAACAAACAAAQAAQAAAQAAAAAAAAAAA==

> <PUBCHEM_IUPAC_OPENEYE_NAME>
N-(2-bromoallyl)-1H-indole-5-carboxamide

> <PUBCHEM_IUPAC_CAS_NAME>
N-(2-bromoprop-2-enyl)-1H-indole-5-carboxamide

> <PUBCHEM_IUPAC_NAME>
N-(2-bromoprop-2-enyl)-1H-indole-5-carboxamide

> <PUBCHEM_IUPAC_SYSTEMATIC_NAME>
N-(2-bromanylprop-2-enyl)-1H-indole-5-carboxamide

> <PUBCHEM_IUPAC_TRADITIONAL_NAME>
N-(2-bromoallyl)-1H-indole-5-carboxamide

> <PUBCHEM_IUPAC_INCHI>
InChI=1S/C12H11BrN2O/c1-8(13)7-15-12(16)10-2-3-11-9(6-10)4-5-14-11/h2-6,14H,1,7H2,(H,15,16)

> <PUBCHEM_IUPAC_INCHIKEY>
AOXGNFDLELAKAY-UHFFFAOYSA-N

> <PUBCHEM_XLOGP3>
2.4

> <PUBCHEM_EXACT_MASS>
278.005475

> <PUBCHEM_MOLECULAR_FORMULA>
C12H11BrN2O

> <PUBCHEM_MOLECULAR_WEIGHT>
279.13254

> <PUBCHEM_OPENEYE_CAN_SMILES>
C=C(CNC(=O)C1=CC2=C(C=C1)NC=C2)Br

> <PUBCHEM_OPENEYE_ISO_SMILES>
C=C(CNC(=O)C1=CC2=C(C=C1)NC=C2)Br

> <PUBCHEM_CACTVS_TPSA>
44.9

> <PUBCHEM_MONOISOTOPIC_WEIGHT>
278.005475

> <PUBCHEM_TOTAL_CHARGE>
0

> <PUBCHEM_HEAVY_ATOM_COUNT>
16

> <PUBCHEM_ATOM_DEF_STEREO_COUNT>
0

> <PUBCHEM_ATOM_UDEF_STEREO_COUNT>
0

> <PUBCHEM_BOND_DEF_STEREO_COUNT>
0

> <PUBCHEM_BOND_UDEF_STEREO_COUNT>
0

> <PUBCHEM_ISOTOPIC_ATOM_COUNT>
0

> <PUBCHEM_COMPONENT_COUNT>
1

> <PUBCHEM_CACTVS_TAUTO_COUNT>
5

> <PUBCHEM_COORDINATE_TYPE>
1
5
255

> <PUBCHEM_BONDANNOTATIONS>
10  12  8
3  12  8
3  6  8
5  10  8
5  6  8
5  8  8
6  9  8
7  11  8
7  8  8
9  11  8

$$$$
