33425120
  -OEChem-03061303092D

 56 58  0     0  0  0  0  0  0999 V2000
    7.9244   -0.1342    0.0000 O   0  0  0  0  0  0  0  0  0  0  0  0
   10.5028    2.1793    0.0000 N   0  3  0  0  0  0  0  0  0  0  0  0
    7.5673    1.5607    0.0000 N   0  0  0  0  0  0  0  0  0  0  0  0
    6.2781    0.4039    0.0000 N   0  0  0  0  0  0  0  0  0  0  0  0
    4.6783   -3.3128    0.0000 N   0  0  0  0  0  0  0  0  0  0  0  0
    9.8349    2.9236    0.0000 C   0  0  0  0  0  0  0  0  0  0  0  0
   10.1921    1.2288    0.0000 C   0  0  0  0  0  0  0  0  0  0  0  0
    9.2136    1.0226    0.0000 C   0  0  0  0  0  0  0  0  0  0  0  0
    8.8564    2.7174    0.0000 C   0  0  0  0  0  0  0  0  0  0  0  0
    8.5458    1.7669    0.0000 C   0  0  0  0  0  0  0  0  0  0  0  0
    9.6287    3.9021    0.0000 C   0  0  0  0  0  0  0  0  0  0  0  0
   10.5792    3.5915    0.0000 C   0  0  0  0  0  0  0  0  0  0  0  0
   10.3983    0.2503    0.0000 C   0  0  0  0  0  0  0  0  0  0  0  0
   11.1426    0.9181    0.0000 C   0  0  0  0  0  0  0  0  0  0  0  0
    7.2566    0.6101    0.0000 C   0  0  0  0  0  0  0  0  0  0  0  0
    5.9674   -0.5466    0.0000 C   0  0  0  0  0  0  0  0  0  0  0  0
    4.9889   -0.7528    0.0000 C   0  0  0  0  0  0  0  0  0  0  0  0
    4.6783   -1.7033    0.0000 C   0  0  0  0  0  0  0  0  0  0  0  0
    3.7320   -2.0081    0.0000 C   0  0  0  0  0  0  0  0  0  0  0  0
    5.2619   -2.5081    0.0000 C   0  0  0  0  0  0  0  0  0  0  0  0
    3.7320   -3.0081    0.0000 C   0  0  0  0  0  0  0  0  0  0  0  0
    2.8660   -1.5081    0.0000 C   0  0  0  0  0  0  0  0  0  0  0  0
    2.8660   -3.5081    0.0000 C   0  0  0  0  0  0  0  0  0  0  0  0
    2.0000   -2.0081    0.0000 C   0  0  0  0  0  0  0  0  0  0  0  0
    2.0000   -3.0081    0.0000 C   0  0  0  0  0  0  0  0  0  0  0  0
   10.9643    2.5934    0.0000 H   0  0  0  0  0  0  0  0  0  0  0  0
   11.0921    1.9867    0.0000 H   0  0  0  0  0  0  0  0  0  0  0  0
    8.8359    3.3371    0.0000 H   0  0  0  0  0  0  0  0  0  0  0  0
    8.2426    2.8048    0.0000 H   0  0  0  0  0  0  0  0  0  0  0  0
    8.6873    0.6949    0.0000 H   0  0  0  0  0  0  0  0  0  0  0  0
    9.4449    0.4473    0.0000 H   0  0  0  0  0  0  0  0  0  0  0  0
    8.3532    1.1776    0.0000 H   0  0  0  0  0  0  0  0  0  0  0  0
   10.9500    0.3288    0.0000 H   0  0  0  0  0  0  0  0  0  0  0  0
   11.7320    0.7255    0.0000 H   0  0  0  0  0  0  0  0  0  0  0  0
   11.3353    1.5075    0.0000 H   0  0  0  0  0  0  0  0  0  0  0  0
    9.7917    0.1224    0.0000 H   0  0  0  0  0  0  0  0  0  0  0  0
   10.5262   -0.3564    0.0000 H   0  0  0  0  0  0  0  0  0  0  0  0
   11.0050    0.3781    0.0000 H   0  0  0  0  0  0  0  0  0  0  0  0
   10.9933    3.1300    0.0000 H   0  0  0  0  0  0  0  0  0  0  0  0
   11.0407    4.0055    0.0000 H   0  0  0  0  0  0  0  0  0  0  0  0
   10.1652    4.0529    0.0000 H   0  0  0  0  0  0  0  0  0  0  0  0
   10.2354    4.0300    0.0000 H   0  0  0  0  0  0  0  0  0  0  0  0
    9.5009    4.5088    0.0000 H   0  0  0  0  0  0  0  0  0  0  0  0
    9.0220    3.7743    0.0000 H   0  0  0  0  0  0  0  0  0  0  0  0
    7.1532    2.0221    0.0000 H   0  0  0  0  0  0  0  0  0  0  0  0
    5.8640    0.8654    0.0000 H   0  0  0  0  0  0  0  0  0  0  0  0
    5.9880   -1.1663    0.0000 H   0  0  0  0  0  0  0  0  0  0  0  0
    6.5812   -0.6339    0.0000 H   0  0  0  0  0  0  0  0  0  0  0  0
    4.9684   -0.1332    0.0000 H   0  0  0  0  0  0  0  0  0  0  0  0
    4.3751   -0.6655    0.0000 H   0  0  0  0  0  0  0  0  0  0  0  0
    5.8819   -2.5081    0.0000 H   0  0  0  0  0  0  0  0  0  0  0  0
    4.8709   -3.9021    0.0000 H   0  0  0  0  0  0  0  0  0  0  0  0
    2.8660   -0.8881    0.0000 H   0  0  0  0  0  0  0  0  0  0  0  0
    2.8660   -4.1281    0.0000 H   0  0  0  0  0  0  0  0  0  0  0  0
    1.4631   -1.6981    0.0000 H   0  0  0  0  0  0  0  0  0  0  0  0
    1.4631   -3.3181    0.0000 H   0  0  0  0  0  0  0  0  0  0  0  0
  1 15  2  0  0  0  0
  2  6  1  0  0  0  0
  2  7  1  0  0  0  0
  2 26  1  0  0  0  0
  2 27  1  0  0  0  0
  3 10  1  0  0  0  0
  3 15  1  0  0  0  0
  3 45  1  0  0  0  0
  4 15  1  0  0  0  0
  4 16  1  0  0  0  0
  4 46  1  0  0  0  0
  5 20  1  0  0  0  0
  5 21  1  0  0  0  0
  5 52  1  0  0  0  0
  6  9  1  0  0  0  0
  6 11  1  0  0  0  0
  6 12  1  0  0  0  0
  7  8  1  0  0  0  0
  7 13  1  0  0  0  0
  7 14  1  0  0  0  0
  8 10  1  0  0  0  0
  8 30  1  0  0  0  0
  8 31  1  0  0  0  0
  9 10  1  0  0  0  0
  9 28  1  0  0  0  0
  9 29  1  0  0  0  0
 10 32  1  0  0  0  0
 11 42  1  0  0  0  0
 11 43  1  0  0  0  0
 11 44  1  0  0  0  0
 12 39  1  0  0  0  0
 12 40  1  0  0  0  0
 12 41  1  0  0  0  0
 13 36  1  0  0  0  0
 13 37  1  0  0  0  0
 13 38  1  0  0  0  0
 14 33  1  0  0  0  0
 14 34  1  0  0  0  0
 14 35  1  0  0  0  0
 16 17  1  0  0  0  0
 16 47  1  0  0  0  0
 16 48  1  0  0  0  0
 17 18  1  0  0  0  0
 17 49  1  0  0  0  0
 17 50  1  0  0  0  0
 18 19  1  0  0  0  0
 18 20  2  0  0  0  0
 19 21  1  0  0  0  0
 19 22  2  0  0  0  0
 20 51  1  0  0  0  0
 21 23  2  0  0  0  0
 22 24  1  0  0  0  0
 22 53  1  0  0  0  0
 23 25  1  0  0  0  0
 23 54  1  0  0  0  0
 24 25  2  0  0  0  0
 24 55  1  0  0  0  0
 25 56  1  0  0  0  0
M  CHG  1   2   1
M  END
> <PUBCHEM_COMPOUND_CID>
33425120

> <PUBCHEM_COMPOUND_CANONICALIZED>
1

> <PUBCHEM_CACTVS_COMPLEXITY>
460

> <PUBCHEM_CACTVS_HBOND_ACCEPTOR>
1

> <PUBCHEM_CACTVS_HBOND_DONOR>
4

> <PUBCHEM_CACTVS_ROTATABLE_BOND>
4

> <PUBCHEM_CACTVS_SUBSKEYS>
AAADceB7oAAAAAAAAAAAAAAAAAAAAWAAAAA8QAAAAAAAAFgB8AAAHgAQAAAADKjBHgQ/wPLJkACoAzRnVACCgCAxAiAI2aA4ZJiIIOLA0ZGEIAholgLIyAcQgMAOgAAAAAACAAAAAAAAAAQAAAAAAAAAAA==

> <PUBCHEM_IUPAC_OPENEYE_NAME>
1-[2-(1H-indol-3-yl)ethyl]-3-(2,2,6,6-tetramethylpiperidin-1-ium-4-yl)urea

> <PUBCHEM_IUPAC_CAS_NAME>
1-[2-(1H-indol-3-yl)ethyl]-3-(2,2,6,6-tetramethyl-4-piperidin-1-iumyl)urea

> <PUBCHEM_IUPAC_NAME>
1-[2-(1H-indol-3-yl)ethyl]-3-(2,2,6,6-tetramethylpiperidin-1-ium-4-yl)urea

> <PUBCHEM_IUPAC_SYSTEMATIC_NAME>
1-[2-(1H-indol-3-yl)ethyl]-3-(2,2,6,6-tetramethylpiperidin-1-ium-4-yl)urea

> <PUBCHEM_IUPAC_TRADITIONAL_NAME>
1-[2-(1H-indol-3-yl)ethyl]-3-(2,2,6,6-tetramethylpiperidin-1-ium-4-yl)urea

> <PUBCHEM_IUPAC_INCHI>
InChI=1S/C20H30N4O/c1-19(2)11-15(12-20(3,4)24-19)23-18(25)21-10-9-14-13-22-17-8-6-5-7-16(14)17/h5-8,13,15,22,24H,9-12H2,1-4H3,(H2,21,23,25)/p+1

> <PUBCHEM_IUPAC_INCHIKEY>
NITJDHHQPRCGCG-UHFFFAOYSA-O

> <PUBCHEM_XLOGP3>
3

> <PUBCHEM_EXACT_MASS>
343.249787

> <PUBCHEM_MOLECULAR_FORMULA>
C20H31N4O+

> <PUBCHEM_MOLECULAR_WEIGHT>
343.48634

> <PUBCHEM_OPENEYE_CAN_SMILES>
CC1(CC(CC([NH2+]1)(C)C)NC(=O)NCCC2=CNC3=CC=CC=C32)C

> <PUBCHEM_OPENEYE_ISO_SMILES>
CC1(CC(CC([NH2+]1)(C)C)NC(=O)NCCC2=CNC3=CC=CC=C32)C

> <PUBCHEM_CACTVS_TPSA>
73.5

> <PUBCHEM_MONOISOTOPIC_WEIGHT>
343.249787

> <PUBCHEM_TOTAL_CHARGE>
1

> <PUBCHEM_HEAVY_ATOM_COUNT>
25

> <PUBCHEM_ATOM_DEF_STEREO_COUNT>
0

> <PUBCHEM_ATOM_UDEF_STEREO_COUNT>
0

> <PUBCHEM_BOND_DEF_STEREO_COUNT>
0

> <PUBCHEM_BOND_UDEF_STEREO_COUNT>
0

> <PUBCHEM_ISOTOPIC_ATOM_COUNT>
0

> <PUBCHEM_COMPONENT_COUNT>
1

> <PUBCHEM_CACTVS_TAUTO_COUNT>
3

> <PUBCHEM_COORDINATE_TYPE>
1
5
255

> <PUBCHEM_BONDANNOTATIONS>
18  19  8
18  20  8
19  21  8
19  22  8
21  23  8
22  24  8
23  25  8
24  25  8
5  20  8
5  21  8

$$$$
