39401623
  -OEChem-12041211552D

 33 34  0     0  0  0  0  0  0999 V2000
    2.0000   -0.7500    0.0000 Cl  0  0  0  0  0  0  0  0  0  0  0  0
    3.7320   -3.7500    0.0000 Cl  0  0  0  0  0  0  0  0  0  0  0  0
    5.4641    0.2500    0.0000 O   0  0  0  0  0  0  0  0  0  0  0  0
    4.5981    1.7500    0.0000 C   0  0  0  0  0  0  0  0  0  0  0  0
    3.7320    0.2500    0.0000 C   0  0  0  0  0  0  0  0  0  0  0  0
    5.4641    2.2500    0.0000 C   0  0  0  0  0  0  0  0  0  0  0  0
    4.5981    0.7500    0.0000 C   0  0  0  0  0  0  0  0  0  0  0  0
    3.7320   -0.7500    0.0000 C   0  0  0  0  0  0  0  0  0  0  0  0
    6.3301    1.7500    0.0000 C   0  0  0  0  0  0  0  0  0  0  0  0
    5.4641    3.2500    0.0000 C   0  0  0  0  0  0  0  0  0  0  0  0
    7.1962    3.2500    0.0000 C   0  0  0  0  0  0  0  0  0  0  0  0
    7.1962    2.2500    0.0000 C   0  0  0  0  0  0  0  0  0  0  0  0
    6.3301    3.7500    0.0000 C   0  0  0  0  0  0  0  0  0  0  0  0
    2.8660   -1.2500    0.0000 C   0  0  0  0  0  0  0  0  0  0  0  0
    4.5981   -1.2500    0.0000 C   0  0  0  0  0  0  0  0  0  0  0  0
    2.8660   -2.2500    0.0000 C   0  0  0  0  0  0  0  0  0  0  0  0
    4.5981   -2.2500    0.0000 C   0  0  0  0  0  0  0  0  0  0  0  0
    8.0622    3.7500    0.0000 C   0  0  0  0  0  0  0  0  0  0  0  0
    3.7320   -2.7500    0.0000 C   0  0  0  0  0  0  0  0  0  0  0  0
    4.3860    2.3326    0.0000 H   0  0  0  0  0  0  0  0  0  0  0  0
    3.9875    1.6423    0.0000 H   0  0  0  0  0  0  0  0  0  0  0  0
    3.5200    0.8326    0.0000 H   0  0  0  0  0  0  0  0  0  0  0  0
    3.1215    0.1423    0.0000 H   0  0  0  0  0  0  0  0  0  0  0  0
    6.3301    1.1300    0.0000 H   0  0  0  0  0  0  0  0  0  0  0  0
    4.9272    3.5600    0.0000 H   0  0  0  0  0  0  0  0  0  0  0  0
    7.7331    1.9400    0.0000 H   0  0  0  0  0  0  0  0  0  0  0  0
    6.3301    4.3700    0.0000 H   0  0  0  0  0  0  0  0  0  0  0  0
    5.1350   -0.9400    0.0000 H   0  0  0  0  0  0  0  0  0  0  0  0
    2.3291   -2.5600    0.0000 H   0  0  0  0  0  0  0  0  0  0  0  0
    5.1350   -2.5600    0.0000 H   0  0  0  0  0  0  0  0  0  0  0  0
    8.3722    3.2131    0.0000 H   0  0  0  0  0  0  0  0  0  0  0  0
    8.5991    4.0600    0.0000 H   0  0  0  0  0  0  0  0  0  0  0  0
    7.7522    4.2869    0.0000 H   0  0  0  0  0  0  0  0  0  0  0  0
  1 14  1  0  0  0  0
  2 19  1  0  0  0  0
  3  7  2  0  0  0  0
  4  6  1  0  0  0  0
  4  7  1  0  0  0  0
  4 20  1  0  0  0  0
  4 21  1  0  0  0  0
  5  7  1  0  0  0  0
  5  8  1  0  0  0  0
  5 22  1  0  0  0  0
  5 23  1  0  0  0  0
  6  9  2  0  0  0  0
  6 10  1  0  0  0  0
  8 14  2  0  0  0  0
  8 15  1  0  0  0  0
  9 12  1  0  0  0  0
  9 24  1  0  0  0  0
 10 13  2  0  0  0  0
 10 25  1  0  0  0  0
 11 12  2  0  0  0  0
 11 13  1  0  0  0  0
 11 18  1  0  0  0  0
 12 26  1  0  0  0  0
 13 27  1  0  0  0  0
 14 16  1  0  0  0  0
 15 17  2  0  0  0  0
 15 28  1  0  0  0  0
 16 19  2  0  0  0  0
 16 29  1  0  0  0  0
 17 19  1  0  0  0  0
 17 30  1  0  0  0  0
 18 31  1  0  0  0  0
 18 32  1  0  0  0  0
 18 33  1  0  0  0  0
M  END
> <PUBCHEM_COMPOUND_CID>
39401623

> <PUBCHEM_COMPOUND_CANONICALIZED>
1

> <PUBCHEM_CACTVS_COMPLEXITY>
297

> <PUBCHEM_CACTVS_HBOND_ACCEPTOR>
1

> <PUBCHEM_CACTVS_HBOND_DONOR>
0

> <PUBCHEM_CACTVS_ROTATABLE_BOND>
4

> <PUBCHEM_CACTVS_SUBSKEYS>
AAADccB4IAAGAAAAAAAAAAAAAAAAAAAAAAAwYAAAAAAAAAABQAAAGgIAAAAADAaAmCAyAIAAAACIAqBSAAACAAAgBQAIiAEAAogIIDKBFxCAIAAggAAIiAcIiMCORAAAAACBAACIAAAAAQIAAAAAAAAAAA==

> <PUBCHEM_IUPAC_OPENEYE_NAME>
1-(2,4-dichlorophenyl)-3-(p-tolyl)propan-2-one

> <PUBCHEM_IUPAC_CAS_NAME>
1-(2,4-dichlorophenyl)-3-(4-methylphenyl)-2-propanone

> <PUBCHEM_IUPAC_NAME>
1-(2,4-dichlorophenyl)-3-(4-methylphenyl)propan-2-one

> <PUBCHEM_IUPAC_SYSTEMATIC_NAME>
1-(2,4-dichlorophenyl)-3-(4-methylphenyl)propan-2-one

> <PUBCHEM_IUPAC_TRADITIONAL_NAME>
1-(2,4-dichlorophenyl)-3-(p-tolyl)acetone

> <PUBCHEM_IUPAC_INCHI>
InChI=1S/C16H14Cl2O/c1-11-2-4-12(5-3-11)8-15(19)9-13-6-7-14(17)10-16(13)18/h2-7,10H,8-9H2,1H3

> <PUBCHEM_IUPAC_INCHIKEY>
FGZXRIKDVUVJNF-UHFFFAOYSA-N

> <PUBCHEM_XLOGP3>
5

> <PUBCHEM_EXACT_MASS>
292.04217

> <PUBCHEM_MOLECULAR_FORMULA>
C16H14Cl2O

> <PUBCHEM_MOLECULAR_WEIGHT>
293.18776

> <PUBCHEM_OPENEYE_CAN_SMILES>
CC1=CC=C(C=C1)CC(=O)CC2=C(C=C(C=C2)Cl)Cl

> <PUBCHEM_OPENEYE_ISO_SMILES>
CC1=CC=C(C=C1)CC(=O)CC2=C(C=C(C=C2)Cl)Cl

> <PUBCHEM_CACTVS_TPSA>
17.1

> <PUBCHEM_MONOISOTOPIC_WEIGHT>
292.04217

> <PUBCHEM_TOTAL_CHARGE>
0

> <PUBCHEM_HEAVY_ATOM_COUNT>
19

> <PUBCHEM_ATOM_DEF_STEREO_COUNT>
0

> <PUBCHEM_ATOM_UDEF_STEREO_COUNT>
0

> <PUBCHEM_BOND_DEF_STEREO_COUNT>
0

> <PUBCHEM_BOND_UDEF_STEREO_COUNT>
0

> <PUBCHEM_ISOTOPIC_ATOM_COUNT>
0

> <PUBCHEM_COMPONENT_COUNT>
1

> <PUBCHEM_CACTVS_TAUTO_COUNT>
3

> <PUBCHEM_COORDINATE_TYPE>
1
5
255

> <PUBCHEM_BONDANNOTATIONS>
10  13  8
11  12  8
11  13  8
14  16  8
15  17  8
16  19  8
17  19  8
6  10  8
6  9  8
8  14  8
8  15  8
9  12  8

$$$$
39401631
  -OEChem-12041211552D

 34 35  0     0  0  0  0  0  0999 V2000
    4.1756    3.4239    0.0000 Br  0  0  0  0  0  0  0  0  0  0  0  0
    3.0878    1.0761    0.0000 N   0  0  0  0  0  0  0  0  0  0  0  0
    2.2788    1.6639    0.0000 N   0  0  0  0  0  0  0  0  0  0  0  0
    3.0878   -2.9239    0.0000 C   0  0  0  0  0  0  0  0  0  0  0  0
    3.0878   -1.9239    0.0000 C   0  0  0  0  0  0  0  0  0  0  0  0
    3.0878    0.0761    0.0000 C   0  0  0  0  0  0  0  0  0  0  0  0
    3.9538   -1.4239    0.0000 C   0  0  0  0  0  0  0  0  0  0  0  0
    2.2218   -1.4239    0.0000 C   0  0  0  0  0  0  0  0  0  0  0  0
    3.8968    1.6639    0.0000 C   0  0  0  0  0  0  0  0  0  0  0  0
    2.2218   -3.4239    0.0000 C   0  0  0  0  0  0  0  0  0  0  0  0
    3.9538   -3.4239    0.0000 C   0  0  0  0  0  0  0  0  0  0  0  0
    3.9538   -0.4239    0.0000 C   0  0  0  0  0  0  0  0  0  0  0  0
    2.2218   -0.4239    0.0000 C   0  0  0  0  0  0  0  0  0  0  0  0
    3.5878    2.6149    0.0000 C   0  0  0  0  0  0  0  0  0  0  0  0
    2.5878    2.6149    0.0000 C   0  0  0  0  0  0  0  0  0  0  0  0
    4.8479    1.3548    0.0000 C   0  0  0  0  0  0  0  0  0  0  0  0
    2.0000    3.4239    0.0000 C   0  0  0  0  0  0  0  0  0  0  0  0
    3.0878   -3.5439    0.0000 H   0  0  0  0  0  0  0  0  0  0  0  0
    4.4908   -1.7339    0.0000 H   0  0  0  0  0  0  0  0  0  0  0  0
    1.6848   -1.7339    0.0000 H   0  0  0  0  0  0  0  0  0  0  0  0
    4.4908   -0.1139    0.0000 H   0  0  0  0  0  0  0  0  0  0  0  0
    1.6848   -0.1139    0.0000 H   0  0  0  0  0  0  0  0  0  0  0  0
    1.9118   -2.8870    0.0000 H   0  0  0  0  0  0  0  0  0  0  0  0
    1.6848   -3.7339    0.0000 H   0  0  0  0  0  0  0  0  0  0  0  0
    2.5318   -3.9609    0.0000 H   0  0  0  0  0  0  0  0  0  0  0  0
    3.6438   -3.9609    0.0000 H   0  0  0  0  0  0  0  0  0  0  0  0
    4.4908   -3.7339    0.0000 H   0  0  0  0  0  0  0  0  0  0  0  0
    4.2638   -2.8870    0.0000 H   0  0  0  0  0  0  0  0  0  0  0  0
    4.6563    0.7652    0.0000 H   0  0  0  0  0  0  0  0  0  0  0  0
    5.4375    1.1632    0.0000 H   0  0  0  0  0  0  0  0  0  0  0  0
    5.0395    1.9445    0.0000 H   0  0  0  0  0  0  0  0  0  0  0  0
    2.5016    3.7884    0.0000 H   0  0  0  0  0  0  0  0  0  0  0  0
    1.6356    3.9255    0.0000 H   0  0  0  0  0  0  0  0  0  0  0  0
    1.4984    3.0595    0.0000 H   0  0  0  0  0  0  0  0  0  0  0  0
  1 14  1  0  0  0  0
  2  3  1  0  0  0  0
  2  6  1  0  0  0  0
  2  9  1  0  0  0  0
  3 15  2  0  0  0  0
  4  5  1  0  0  0  0
  4 10  1  0  0  0  0
  4 11  1  0  0  0  0
  4 18  1  0  0  0  0
  5  7  2  0  0  0  0
  5  8  1  0  0  0  0
  6 12  2  0  0  0  0
  6 13  1  0  0  0  0
  7 12  1  0  0  0  0
  7 19  1  0  0  0  0
  8 13  2  0  0  0  0
  8 20  1  0  0  0  0
  9 14  2  0  0  0  0
  9 16  1  0  0  0  0
 10 23  1  0  0  0  0
 10 24  1  0  0  0  0
 10 25  1  0  0  0  0
 11 26  1  0  0  0  0
 11 27  1  0  0  0  0
 11 28  1  0  0  0  0
 12 21  1  0  0  0  0
 13 22  1  0  0  0  0
 14 15  1  0  0  0  0
 15 17  1  0  0  0  0
 16 29  1  0  0  0  0
 16 30  1  0  0  0  0
 16 31  1  0  0  0  0
 17 32  1  0  0  0  0
 17 33  1  0  0  0  0
 17 34  1  0  0  0  0
M  END
> <PUBCHEM_COMPOUND_CID>
39401631

> <PUBCHEM_COMPOUND_CANONICALIZED>
1

> <PUBCHEM_CACTVS_COMPLEXITY>
249

> <PUBCHEM_CACTVS_HBOND_ACCEPTOR>
1

> <PUBCHEM_CACTVS_HBOND_DONOR>
0

> <PUBCHEM_CACTVS_ROTATABLE_BOND>
2

> <PUBCHEM_CACTVS_SUBSKEYS>
AAADceBzAAAAEAAAAAAAAAAAAAAAAWAAAAAwAAAAAAAAAAABwAAAHABIAAABrQiBHgAywJIIAACiAyRiRACSBCAhAgQYmCAwZLgIIGLA0dGEpAhgiADIyAcQgMAOiAAAAAAAAAAQAAAAAAAAAAAAAAAAAA==

> <PUBCHEM_IUPAC_OPENEYE_NAME>
4-bromo-1-(4-isopropylphenyl)-3,5-dimethyl-pyrazole

> <PUBCHEM_IUPAC_CAS_NAME>
4-bromo-3,5-dimethyl-1-(4-propan-2-ylphenyl)pyrazole

> <PUBCHEM_IUPAC_NAME>
4-bromo-3,5-dimethyl-1-(4-propan-2-ylphenyl)pyrazole

> <PUBCHEM_IUPAC_SYSTEMATIC_NAME>
4-bromanyl-3,5-dimethyl-1-(4-propan-2-ylphenyl)pyrazole

> <PUBCHEM_IUPAC_TRADITIONAL_NAME>
4-bromo-3,5-dimethyl-1-p-cumenyl-pyrazole

> <PUBCHEM_IUPAC_INCHI>
InChI=1S/C14H17BrN2/c1-9(2)12-5-7-13(8-6-12)17-11(4)14(15)10(3)16-17/h5-9H,1-4H3

> <PUBCHEM_IUPAC_INCHIKEY>
KAUCZXCNBOPNGJ-UHFFFAOYSA-N

> <PUBCHEM_XLOGP3>
4.7

> <PUBCHEM_EXACT_MASS>
292.057511

> <PUBCHEM_MOLECULAR_FORMULA>
C14H17BrN2

> <PUBCHEM_MOLECULAR_WEIGHT>
293.20218

> <PUBCHEM_OPENEYE_CAN_SMILES>
CC1=C(C(=NN1C2=CC=C(C=C2)C(C)C)C)Br

> <PUBCHEM_OPENEYE_ISO_SMILES>
CC1=C(C(=NN1C2=CC=C(C=C2)C(C)C)C)Br

> <PUBCHEM_CACTVS_TPSA>
17.8

> <PUBCHEM_MONOISOTOPIC_WEIGHT>
292.057511

> <PUBCHEM_TOTAL_CHARGE>
0

> <PUBCHEM_HEAVY_ATOM_COUNT>
17

> <PUBCHEM_ATOM_DEF_STEREO_COUNT>
0

> <PUBCHEM_ATOM_UDEF_STEREO_COUNT>
0

> <PUBCHEM_BOND_DEF_STEREO_COUNT>
0

> <PUBCHEM_BOND_UDEF_STEREO_COUNT>
0

> <PUBCHEM_ISOTOPIC_ATOM_COUNT>
0

> <PUBCHEM_COMPONENT_COUNT>
1

> <PUBCHEM_CACTVS_TAUTO_COUNT>
1

> <PUBCHEM_COORDINATE_TYPE>
1
5
255

> <PUBCHEM_BONDANNOTATIONS>
14  15  8
2  3  8
2  9  8
3  15  8
5  7  8
5  8  8
6  12  8
6  13  8
7  12  8
8  13  8
9  14  8

$$$$
39415955
  -OEChem-12041211552D

 27 28  0     0  0  0  0  0  0999 V2000
    5.4641   -3.6550    0.0000 Br  0  0  0  0  0  0  0  0  0  0  0  0
    2.0000    2.3450    0.0000 Cl  0  0  0  0  0  0  0  0  0  0  0  0
    3.7320    3.3450    0.0000 N   0  0  0  0  0  0  0  0  0  0  0  0
    5.4641    0.3450    0.0000 C   0  0  0  0  0  0  0  0  0  0  0  0
    4.5981    0.8450    0.0000 C   0  0  0  0  0  0  0  0  0  0  0  0
    5.4641   -0.6550    0.0000 C   0  0  0  0  0  0  0  0  0  0  0  0
    4.5981    1.8450    0.0000 C   0  0  0  0  0  0  0  0  0  0  0  0
    3.7320    0.3450    0.0000 C   0  0  0  0  0  0  0  0  0  0  0  0
    4.5981   -1.1550    0.0000 C   0  0  0  0  0  0  0  0  0  0  0  0
    6.3301   -1.1550    0.0000 C   0  0  0  0  0  0  0  0  0  0  0  0
    3.7320    2.3450    0.0000 C   0  0  0  0  0  0  0  0  0  0  0  0
    2.8660    0.8450    0.0000 C   0  0  0  0  0  0  0  0  0  0  0  0
    2.8660    1.8450    0.0000 C   0  0  0  0  0  0  0  0  0  0  0  0
    4.5981   -2.1550    0.0000 C   0  0  0  0  0  0  0  0  0  0  0  0
    6.3301   -2.1550    0.0000 C   0  0  0  0  0  0  0  0  0  0  0  0
    5.4641   -2.6550    0.0000 C   0  0  0  0  0  0  0  0  0  0  0  0
    6.0747    0.2373    0.0000 H   0  0  0  0  0  0  0  0  0  0  0  0
    5.6762    0.9276    0.0000 H   0  0  0  0  0  0  0  0  0  0  0  0
    5.1350    2.1550    0.0000 H   0  0  0  0  0  0  0  0  0  0  0  0
    3.7320   -0.2750    0.0000 H   0  0  0  0  0  0  0  0  0  0  0  0
    4.0611   -0.8450    0.0000 H   0  0  0  0  0  0  0  0  0  0  0  0
    6.8671   -0.8450    0.0000 H   0  0  0  0  0  0  0  0  0  0  0  0
    2.3291    0.5350    0.0000 H   0  0  0  0  0  0  0  0  0  0  0  0
    4.0611   -2.4650    0.0000 H   0  0  0  0  0  0  0  0  0  0  0  0
    6.8671   -2.4650    0.0000 H   0  0  0  0  0  0  0  0  0  0  0  0
    4.2690    3.6550    0.0000 H   0  0  0  0  0  0  0  0  0  0  0  0
    3.1951    3.6550    0.0000 H   0  0  0  0  0  0  0  0  0  0  0  0
  1 16  1  0  0  0  0
  2 13  1  0  0  0  0
  3 11  1  0  0  0  0
  3 26  1  0  0  0  0
  3 27  1  0  0  0  0
  4  5  1  0  0  0  0
  4  6  1  0  0  0  0
  4 17  1  0  0  0  0
  4 18  1  0  0  0  0
  5  7  2  0  0  0  0
  5  8  1  0  0  0  0
  6  9  2  0  0  0  0
  6 10  1  0  0  0  0
  7 11  1  0  0  0  0
  7 19  1  0  0  0  0
  8 12  2  0  0  0  0
  8 20  1  0  0  0  0
  9 14  1  0  0  0  0
  9 21  1  0  0  0  0
 10 15  2  0  0  0  0
 10 22  1  0  0  0  0
 11 13  2  0  0  0  0
 12 13  1  0  0  0  0
 12 23  1  0  0  0  0
 14 16  2  0  0  0  0
 14 24  1  0  0  0  0
 15 16  1  0  0  0  0
 15 25  1  0  0  0  0
M  END
> <PUBCHEM_COMPOUND_CID>
39415955

> <PUBCHEM_COMPOUND_CANONICALIZED>
1

> <PUBCHEM_CACTVS_COMPLEXITY>
216

> <PUBCHEM_CACTVS_HBOND_ACCEPTOR>
1

> <PUBCHEM_CACTVS_HBOND_DONOR>
1

> <PUBCHEM_CACTVS_ROTATABLE_BOND>
2

> <PUBCHEM_CACTVS_SUBSKEYS>
AAADccByAAAEEAAAAAAAAAAAAAAAAAAAAAAwYAAAAAAAAAABQAAAHAJQAAABrAqBGCAwwIBAAACAAiRCQACCAAAgBwQIiAAAZqgIICKBk5GAIABgkAAIyhcQgMAOBgAAQAAAABAMAACAAAAAIAAAAAAAAA==

> <PUBCHEM_IUPAC_OPENEYE_NAME>
5-[(4-bromophenyl)methyl]-2-chloro-aniline

> <PUBCHEM_IUPAC_CAS_NAME>
5-[(4-bromophenyl)methyl]-2-chloroaniline

> <PUBCHEM_IUPAC_NAME>
5-[(4-bromophenyl)methyl]-2-chloroaniline

> <PUBCHEM_IUPAC_SYSTEMATIC_NAME>
5-[(4-bromophenyl)methyl]-2-chloranyl-aniline

> <PUBCHEM_IUPAC_TRADITIONAL_NAME>
[5-(4-bromobenzyl)-2-chloro-phenyl]amine

> <PUBCHEM_IUPAC_INCHI>
InChI=1S/C13H11BrClN/c14-11-4-1-9(2-5-11)7-10-3-6-12(15)13(16)8-10/h1-6,8H,7,16H2

> <PUBCHEM_IUPAC_INCHIKEY>
PNRNCEBMMFMHIU-UHFFFAOYSA-N

> <PUBCHEM_XLOGP3>
4.8

> <PUBCHEM_EXACT_MASS>
294.976339

> <PUBCHEM_MOLECULAR_FORMULA>
C13H11BrClN

> <PUBCHEM_MOLECULAR_WEIGHT>
296.59014

> <PUBCHEM_OPENEYE_CAN_SMILES>
C1=CC(=CC=C1CC2=CC(=C(C=C2)Cl)N)Br

> <PUBCHEM_OPENEYE_ISO_SMILES>
C1=CC(=CC=C1CC2=CC(=C(C=C2)Cl)N)Br

> <PUBCHEM_CACTVS_TPSA>
26

> <PUBCHEM_MONOISOTOPIC_WEIGHT>
294.976339

> <PUBCHEM_TOTAL_CHARGE>
0

> <PUBCHEM_HEAVY_ATOM_COUNT>
16

> <PUBCHEM_ATOM_DEF_STEREO_COUNT>
0

> <PUBCHEM_ATOM_UDEF_STEREO_COUNT>
0

> <PUBCHEM_BOND_DEF_STEREO_COUNT>
0

> <PUBCHEM_BOND_UDEF_STEREO_COUNT>
0

> <PUBCHEM_ISOTOPIC_ATOM_COUNT>
0

> <PUBCHEM_COMPONENT_COUNT>
1

> <PUBCHEM_CACTVS_TAUTO_COUNT>
1

> <PUBCHEM_COORDINATE_TYPE>
1
5
255

> <PUBCHEM_BONDANNOTATIONS>
10  15  8
11  13  8
12  13  8
14  16  8
15  16  8
5  7  8
5  8  8
6  10  8
6  9  8
7  11  8
8  12  8
9  14  8

$$$$
