31479408
  -OEChem-12041211422D

 49 50  0     0  0  0  0  0  0999 V2000
    2.0000    4.7500    0.0000 Cl  0  0  0  0  0  0  0  0  0  0  0  0
    8.0622   -6.7500    0.0000 F   0  0  0  0  0  0  0  0  0  0  0  0
    9.0622   -5.7500    0.0000 F   0  0  0  0  0  0  0  0  0  0  0  0
    7.0622   -5.7500    0.0000 F   0  0  0  0  0  0  0  0  0  0  0  0
    3.7320    6.7500    0.0000 F   0  0  0  0  0  0  0  0  0  0  0  0
    4.7320    5.7500    0.0000 F   0  0  0  0  0  0  0  0  0  0  0  0
    2.7320    5.7500    0.0000 F   0  0  0  0  0  0  0  0  0  0  0  0
    4.5981    1.2500    0.0000 O   0  0  0  0  0  0  0  0  0  0  0  0
    8.0622   -2.7500    0.0000 O   0  0  0  0  0  0  0  0  0  0  0  0
    6.3301    0.2500    0.0000 N   0  0  0  0  0  0  0  0  0  0  0  0
    6.3301   -1.7500    0.0000 N   0  0  0  0  0  0  0  0  0  0  0  0
    5.4641    2.7500    0.0000 N   0  0  0  0  0  0  0  0  0  0  0  0
    7.1962   -4.2500    0.0000 N   0  0  0  0  0  0  0  0  0  0  0  0
    5.4641   -0.2500    0.0000 C   0  0  0  0  0  0  0  0  0  0  0  0
    7.1962   -0.2500    0.0000 C   0  0  0  0  0  0  0  0  0  0  0  0
    5.4641   -1.2500    0.0000 C   0  0  0  0  0  0  0  0  0  0  0  0
    7.1962   -1.2500    0.0000 C   0  0  0  0  0  0  0  0  0  0  0  0
    6.3301    1.2500    0.0000 C   0  0  0  0  0  0  0  0  0  0  0  0
    6.3301   -2.7500    0.0000 C   0  0  0  0  0  0  0  0  0  0  0  0
    5.4641    1.7500    0.0000 C   0  0  0  0  0  0  0  0  0  0  0  0
    7.1962   -3.2500    0.0000 C   0  0  0  0  0  0  0  0  0  0  0  0
    4.5981    3.2500    0.0000 C   0  0  0  0  0  0  0  0  0  0  0  0
    8.0622   -4.7500    0.0000 C   0  0  0  0  0  0  0  0  0  0  0  0
    4.5981    4.2500    0.0000 C   0  0  0  0  0  0  0  0  0  0  0  0
    3.7320    2.7500    0.0000 C   0  0  0  0  0  0  0  0  0  0  0  0
    8.0622   -5.7500    0.0000 C   0  0  0  0  0  0  0  0  0  0  0  0
    3.7320    4.7500    0.0000 C   0  0  0  0  0  0  0  0  0  0  0  0
    2.8660    3.2500    0.0000 C   0  0  0  0  0  0  0  0  0  0  0  0
    2.8660    4.2500    0.0000 C   0  0  0  0  0  0  0  0  0  0  0  0
    3.7320    5.7500    0.0000 C   0  0  0  0  0  0  0  0  0  0  0  0
    7.8067   -0.3577    0.0000 H   0  0  0  0  0  0  0  0  0  0  0  0
    7.4082    0.3326    0.0000 H   0  0  0  0  0  0  0  0  0  0  0  0
    5.2520    0.3326    0.0000 H   0  0  0  0  0  0  0  0  0  0  0  0
    4.8535   -0.3577    0.0000 H   0  0  0  0  0  0  0  0  0  0  0  0
    7.4082   -1.8326    0.0000 H   0  0  0  0  0  0  0  0  0  0  0  0
    7.8067   -1.1423    0.0000 H   0  0  0  0  0  0  0  0  0  0  0  0
    4.8535   -1.1423    0.0000 H   0  0  0  0  0  0  0  0  0  0  0  0
    5.2520   -1.8326    0.0000 H   0  0  0  0  0  0  0  0  0  0  0  0
    6.9407    1.1423    0.0000 H   0  0  0  0  0  0  0  0  0  0  0  0
    6.5422    1.8326    0.0000 H   0  0  0  0  0  0  0  0  0  0  0  0
    5.7196   -2.6423    0.0000 H   0  0  0  0  0  0  0  0  0  0  0  0
    6.1181   -3.3326    0.0000 H   0  0  0  0  0  0  0  0  0  0  0  0
    6.0010    3.0600    0.0000 H   0  0  0  0  0  0  0  0  0  0  0  0
    6.6592   -4.5600    0.0000 H   0  0  0  0  0  0  0  0  0  0  0  0
    8.6728   -4.8577    0.0000 H   0  0  0  0  0  0  0  0  0  0  0  0
    8.2742   -4.1674    0.0000 H   0  0  0  0  0  0  0  0  0  0  0  0
    5.1350    4.5600    0.0000 H   0  0  0  0  0  0  0  0  0  0  0  0
    3.7320    2.1300    0.0000 H   0  0  0  0  0  0  0  0  0  0  0  0
    2.3291    2.9400    0.0000 H   0  0  0  0  0  0  0  0  0  0  0  0
  1 29  1  0  0  0  0
  2 26  1  0  0  0  0
  3 26  1  0  0  0  0
  4 26  1  0  0  0  0
  5 30  1  0  0  0  0
  6 30  1  0  0  0  0
  7 30  1  0  0  0  0
  8 20  2  0  0  0  0
  9 21  2  0  0  0  0
 10 14  1  0  0  0  0
 10 15  1  0  0  0  0
 10 18  1  0  0  0  0
 11 16  1  0  0  0  0
 11 17  1  0  0  0  0
 11 19  1  0  0  0  0
 12 20  1  0  0  0  0
 12 22  1  0  0  0  0
 12 43  1  0  0  0  0
 13 21  1  0  0  0  0
 13 23  1  0  0  0  0
 13 44  1  0  0  0  0
 14 16  1  0  0  0  0
 14 33  1  0  0  0  0
 14 34  1  0  0  0  0
 15 17  1  0  0  0  0
 15 31  1  0  0  0  0
 15 32  1  0  0  0  0
 16 37  1  0  0  0  0
 16 38  1  0  0  0  0
 17 35  1  0  0  0  0
 17 36  1  0  0  0  0
 18 20  1  0  0  0  0
 18 39  1  0  0  0  0
 18 40  1  0  0  0  0
 19 21  1  0  0  0  0
 19 41  1  0  0  0  0
 19 42  1  0  0  0  0
 22 24  2  0  0  0  0
 22 25  1  0  0  0  0
 23 26  1  0  0  0  0
 23 45  1  0  0  0  0
 23 46  1  0  0  0  0
 24 27  1  0  0  0  0
 24 47  1  0  0  0  0
 25 28  2  0  0  0  0
 25 48  1  0  0  0  0
 27 29  2  0  0  0  0
 27 30  1  0  0  0  0
 28 29  1  0  0  0  0
 28 49  1  0  0  0  0
M  END
> <PUBCHEM_COMPOUND_CID>
31479408

> <PUBCHEM_COMPOUND_CANONICALIZED>
1

> <PUBCHEM_CACTVS_COMPLEXITY>
596

> <PUBCHEM_CACTVS_HBOND_ACCEPTOR>
10

> <PUBCHEM_CACTVS_HBOND_DONOR>
2

> <PUBCHEM_CACTVS_ROTATABLE_BOND>
6

> <PUBCHEM_CACTVS_SUBSKEYS>
AAADceB7scAEAAAAAAAAAAAAAAAAAAAAAAA8QAAAAAAAAAABAAAAHwIQAAAADArBmDQwwIPAAACIAiVSUACCAAAhBwAIiICIZogIYCLBk7GUIAhglgDIyAcQgAAOAABAQAABAAAAAICAAAIAAAAAAAAAAA==

> <PUBCHEM_IUPAC_OPENEYE_NAME>
2-[4-[2-[4-chloro-3-(trifluoromethyl)anilino]-2-oxo-ethyl]piperazin-1-yl]-N-(2,2,2-trifluoroethyl)acetamide

> <PUBCHEM_IUPAC_CAS_NAME>
2-[4-[2-[4-chloro-3-(trifluoromethyl)anilino]-2-oxoethyl]-1-piperazinyl]-N-(2,2,2-trifluoroethyl)acetamide

> <PUBCHEM_IUPAC_NAME>
2-[4-[2-[4-chloro-3-(trifluoromethyl)anilino]-2-oxoethyl]piperazin-1-yl]-N-(2,2,2-trifluoroethyl)acetamide

> <PUBCHEM_IUPAC_SYSTEMATIC_NAME>
2-[4-[2-[[4-chloranyl-3-(trifluoromethyl)phenyl]amino]-2-oxidanylidene-ethyl]piperazin-1-yl]-N-[2,2,2-tris(fluoranyl)ethyl]ethanamide

> <PUBCHEM_IUPAC_TRADITIONAL_NAME>
2-[4-[2-[4-chloro-3-(trifluoromethyl)anilino]-2-keto-ethyl]piperazino]-N-(2,2,2-trifluoroethyl)acetamide

> <PUBCHEM_IUPAC_INCHI>
InChI=1S/C17H19ClF6N4O2/c18-13-2-1-11(7-12(13)17(22,23)24)26-15(30)9-28-5-3-27(4-6-28)8-14(29)25-10-16(19,20)21/h1-2,7H,3-6,8-10H2,(H,25,29)(H,26,30)

> <PUBCHEM_IUPAC_INCHIKEY>
LTQRRGZYIRXZET-UHFFFAOYSA-N

> <PUBCHEM_XLOGP3>
3.7

> <PUBCHEM_EXACT_MASS>
460.110073

> <PUBCHEM_MOLECULAR_FORMULA>
C17H19ClF6N4O2

> <PUBCHEM_MOLECULAR_WEIGHT>
460.801779

> <PUBCHEM_OPENEYE_CAN_SMILES>
C1CN(CCN1CC(=O)NCC(F)(F)F)CC(=O)NC2=CC(=C(C=C2)Cl)C(F)(F)F

> <PUBCHEM_OPENEYE_ISO_SMILES>
C1CN(CCN1CC(=O)NCC(F)(F)F)CC(=O)NC2=CC(=C(C=C2)Cl)C(F)(F)F

> <PUBCHEM_CACTVS_TPSA>
64.7

> <PUBCHEM_MONOISOTOPIC_WEIGHT>
460.110073

> <PUBCHEM_TOTAL_CHARGE>
0

> <PUBCHEM_HEAVY_ATOM_COUNT>
30

> <PUBCHEM_ATOM_DEF_STEREO_COUNT>
0

> <PUBCHEM_ATOM_UDEF_STEREO_COUNT>
0

> <PUBCHEM_BOND_DEF_STEREO_COUNT>
0

> <PUBCHEM_BOND_UDEF_STEREO_COUNT>
0

> <PUBCHEM_ISOTOPIC_ATOM_COUNT>
0

> <PUBCHEM_COMPONENT_COUNT>
1

> <PUBCHEM_CACTVS_TAUTO_COUNT>
6

> <PUBCHEM_COORDINATE_TYPE>
1
5
255

> <PUBCHEM_BONDANNOTATIONS>
22  24  8
22  25  8
24  27  8
25  28  8
27  29  8
28  29  8

$$$$
