30133755
  -OEChem-11301217422D

 53 55  0     0  0  0  0  0  0999 V2000
   14.1884   -0.2775    0.0000 F   0  0  0  0  0  0  0  0  0  0  0  0
   13.8277    1.0899    0.0000 F   0  0  0  0  0  0  0  0  0  0  0  0
   12.8210   -0.6382    0.0000 F   0  0  0  0  0  0  0  0  0  0  0  0
    9.7942   -0.7500    0.0000 O   0  0  0  0  0  0  0  0  0  0  0  0
    8.0622   -0.7500    0.0000 O   0  0  0  0  0  0  0  0  0  0  0  0
    4.5981   -2.7500    0.0000 O   0  0  0  0  0  0  0  0  0  0  0  0
    2.8660    0.2500    0.0000 O   0  0  0  0  0  0  0  0  0  0  0  0
    6.3301   -2.7500    0.0000 O   0  0  0  0  0  0  0  0  0  0  0  0
    3.7320    1.7500    0.0000 O   0  0  0  0  0  0  0  0  0  0  0  0
    9.7942    2.2500    0.0000 N   0  0  0  0  0  0  0  0  0  0  0  0
    7.1962    0.7500    0.0000 N   0  0  0  0  0  0  0  0  0  0  0  0
   10.6603    1.7500    0.0000 C   0  0  0  0  0  0  0  0  0  0  0  0
   10.6603    0.7500    0.0000 C   0  0  0  0  0  0  0  0  0  0  0  0
    9.7942    3.2500    0.0000 C   0  0  0  0  0  0  0  0  0  0  0  0
    8.9282    0.7500    0.0000 C   0  0  0  0  0  0  0  0  0  0  0  0
    8.9282    1.7500    0.0000 C   0  0  0  0  0  0  0  0  0  0  0  0
    9.7942    0.2500    0.0000 C   0  0  0  0  0  0  0  0  0  0  0  0
   11.5542    0.2153    0.0000 C   0  0  0  0  0  0  0  0  0  0  0  0
   11.5542    2.2847    0.0000 C   0  0  0  0  0  0  0  0  0  0  0  0
   12.4603    0.7292    0.0000 C   0  0  0  0  0  0  0  0  0  0  0  0
   12.4603    1.7708    0.0000 C   0  0  0  0  0  0  0  0  0  0  0  0
    8.0622    0.2500    0.0000 C   0  0  0  0  0  0  0  0  0  0  0  0
    8.9282    3.7500    0.0000 C   0  0  0  0  0  0  0  0  0  0  0  0
   13.3244    0.2258    0.0000 C   0  0  0  0  0  0  0  0  0  0  0  0
    6.3301    0.2500    0.0000 C   0  0  0  0  0  0  0  0  0  0  0  0
    5.4641    0.7500    0.0000 C   0  0  0  0  0  0  0  0  0  0  0  0
    6.3301   -0.7500    0.0000 C   0  0  0  0  0  0  0  0  0  0  0  0
    4.5981    0.2500    0.0000 C   0  0  0  0  0  0  0  0  0  0  0  0
    5.4641   -1.2500    0.0000 C   0  0  0  0  0  0  0  0  0  0  0  0
    4.5981   -0.7500    0.0000 C   0  0  0  0  0  0  0  0  0  0  0  0
    5.4641   -2.2500    0.0000 C   0  0  0  0  0  0  0  0  0  0  0  0
    3.7320    0.7500    0.0000 C   0  0  0  0  0  0  0  0  0  0  0  0
    4.5981   -3.7500    0.0000 C   0  0  0  0  0  0  0  0  0  0  0  0
    2.0000    0.7500    0.0000 C   0  0  0  0  0  0  0  0  0  0  0  0
   10.4048    3.1423    0.0000 H   0  0  0  0  0  0  0  0  0  0  0  0
   10.0063    3.8326    0.0000 H   0  0  0  0  0  0  0  0  0  0  0  0
    8.3913    2.0600    0.0000 H   0  0  0  0  0  0  0  0  0  0  0  0
   11.5470   -0.4046    0.0000 H   0  0  0  0  0  0  0  0  0  0  0  0
   11.5470    2.9046    0.0000 H   0  0  0  0  0  0  0  0  0  0  0  0
   12.9960    2.0829    0.0000 H   0  0  0  0  0  0  0  0  0  0  0  0
    9.2382    4.2869    0.0000 H   0  0  0  0  0  0  0  0  0  0  0  0
    8.3913    4.0600    0.0000 H   0  0  0  0  0  0  0  0  0  0  0  0
    8.6182    3.2131    0.0000 H   0  0  0  0  0  0  0  0  0  0  0  0
    7.1962    1.3700    0.0000 H   0  0  0  0  0  0  0  0  0  0  0  0
    5.4641    1.3700    0.0000 H   0  0  0  0  0  0  0  0  0  0  0  0
    6.8671   -1.0600    0.0000 H   0  0  0  0  0  0  0  0  0  0  0  0
    4.0611   -1.0600    0.0000 H   0  0  0  0  0  0  0  0  0  0  0  0
    3.9781   -3.7500    0.0000 H   0  0  0  0  0  0  0  0  0  0  0  0
    4.5981   -4.3700    0.0000 H   0  0  0  0  0  0  0  0  0  0  0  0
    5.2181   -3.7500    0.0000 H   0  0  0  0  0  0  0  0  0  0  0  0
    2.3100    1.2869    0.0000 H   0  0  0  0  0  0  0  0  0  0  0  0
    1.4631    1.0600    0.0000 H   0  0  0  0  0  0  0  0  0  0  0  0
    1.6900    0.2131    0.0000 H   0  0  0  0  0  0  0  0  0  0  0  0
  1 24  1  0  0  0  0
  2 24  1  0  0  0  0
  3 24  1  0  0  0  0
  4 17  2  0  0  0  0
  5 22  2  0  0  0  0
  6 31  1  0  0  0  0
  6 33  1  0  0  0  0
  7 32  1  0  0  0  0
  7 34  1  0  0  0  0
  8 31  2  0  0  0  0
  9 32  2  0  0  0  0
 10 12  1  0  0  0  0
 10 14  1  0  0  0  0
 10 16  1  0  0  0  0
 11 22  1  0  0  0  0
 11 25  1  0  0  0  0
 11 44  1  0  0  0  0
 12 13  2  0  0  0  0
 12 19  1  0  0  0  0
 13 17  1  0  0  0  0
 13 18  1  0  0  0  0
 14 23  1  0  0  0  0
 14 35  1  0  0  0  0
 14 36  1  0  0  0  0
 15 16  2  0  0  0  0
 15 17  1  0  0  0  0
 15 22  1  0  0  0  0
 16 37  1  0  0  0  0
 18 20  2  0  0  0  0
 18 38  1  0  0  0  0
 19 21  2  0  0  0  0
 19 39  1  0  0  0  0
 20 21  1  0  0  0  0
 20 24  1  0  0  0  0
 21 40  1  0  0  0  0
 23 41  1  0  0  0  0
 23 42  1  0  0  0  0
 23 43  1  0  0  0  0
 25 26  2  0  0  0  0
 25 27  1  0  0  0  0
 26 28  1  0  0  0  0
 26 45  1  0  0  0  0
 27 29  2  0  0  0  0
 27 46  1  0  0  0  0
 28 30  2  0  0  0  0
 28 32  1  0  0  0  0
 29 30  1  0  0  0  0
 29 31  1  0  0  0  0
 30 47  1  0  0  0  0
 33 48  1  0  0  0  0
 33 49  1  0  0  0  0
 33 50  1  0  0  0  0
 34 51  1  0  0  0  0
 34 52  1  0  0  0  0
 34 53  1  0  0  0  0
M  END
> <PUBCHEM_COMPOUND_CID>
30133755

> <PUBCHEM_COMPOUND_CANONICALIZED>
1

> <PUBCHEM_CACTVS_COMPLEXITY>
834

> <PUBCHEM_CACTVS_HBOND_ACCEPTOR>
10

> <PUBCHEM_CACTVS_HBOND_DONOR>
1

> <PUBCHEM_CACTVS_ROTATABLE_BOND>
7

> <PUBCHEM_CACTVS_SUBSKEYS>
AAADceB7OYAAAAAAAAAAAAAAAAAAAAAAAAAwYIAAAAAAAACBQAAAHwAQAAAADAzBmBYyyIPABACIAqXWWACCAAAlAgAIiAEIbMgIJjrItZmEMYhk1AHI6ce87+ieCAACQAACAAAQAASAAAQAAAAAAAAAAA==

> <PUBCHEM_IUPAC_OPENEYE_NAME>
dimethyl 5-[[1-ethyl-4-oxo-6-(trifluoromethyl)quinoline-3-carbonyl]amino]benzene-1,3-dicarboxylate

> <PUBCHEM_IUPAC_CAS_NAME>
5-[[[1-ethyl-4-oxo-6-(trifluoromethyl)-3-quinolinyl]-oxomethyl]amino]benzene-1,3-dicarboxylic acid dimethyl ester

> <PUBCHEM_IUPAC_NAME>
dimethyl 5-[[1-ethyl-4-oxo-6-(trifluoromethyl)quinoline-3-carbonyl]amino]benzene-1,3-dicarboxylate

> <PUBCHEM_IUPAC_SYSTEMATIC_NAME>
dimethyl 5-[[1-ethyl-4-oxidanylidene-6-(trifluoromethyl)quinolin-3-yl]carbonylamino]benzene-1,3-dicarboxylate

> <PUBCHEM_IUPAC_TRADITIONAL_NAME>
5-[[1-ethyl-4-keto-6-(trifluoromethyl)quinoline-3-carbonyl]amino]benzene-1,3-dicarboxylic acid dimethyl ester

> <PUBCHEM_IUPAC_INCHI>
InChI=1S/C23H19F3N2O6/c1-4-28-11-17(19(29)16-10-14(23(24,25)26)5-6-18(16)28)20(30)27-15-8-12(21(31)33-2)7-13(9-15)22(32)34-3/h5-11H,4H2,1-3H3,(H,27,30)

> <PUBCHEM_IUPAC_INCHIKEY>
IXXDPHLDJYQFPL-UHFFFAOYSA-N

> <PUBCHEM_XLOGP3>
1.4

> <PUBCHEM_EXACT_MASS>
476.119521

> <PUBCHEM_MOLECULAR_FORMULA>
C23H19F3N2O6

> <PUBCHEM_MOLECULAR_WEIGHT>
476.40197

> <PUBCHEM_OPENEYE_CAN_SMILES>
CCN1C=C(C(=O)C2=C1C=CC(=C2)C(F)(F)F)C(=O)NC3=CC(=CC(=C3)C(=O)OC)C(=O)OC

> <PUBCHEM_OPENEYE_ISO_SMILES>
CCN1C=C(C(=O)C2=C1C=CC(=C2)C(F)(F)F)C(=O)NC3=CC(=CC(=C3)C(=O)OC)C(=O)OC

> <PUBCHEM_CACTVS_TPSA>
102

> <PUBCHEM_MONOISOTOPIC_WEIGHT>
476.119521

> <PUBCHEM_TOTAL_CHARGE>
0

> <PUBCHEM_HEAVY_ATOM_COUNT>
34

> <PUBCHEM_ATOM_DEF_STEREO_COUNT>
0

> <PUBCHEM_ATOM_UDEF_STEREO_COUNT>
0

> <PUBCHEM_BOND_DEF_STEREO_COUNT>
0

> <PUBCHEM_BOND_UDEF_STEREO_COUNT>
0

> <PUBCHEM_ISOTOPIC_ATOM_COUNT>
0

> <PUBCHEM_COMPONENT_COUNT>
1

> <PUBCHEM_CACTVS_TAUTO_COUNT>
2

> <PUBCHEM_COORDINATE_TYPE>
1
5
255

> <PUBCHEM_BONDANNOTATIONS>
10  12  8
10  16  8
12  13  8
12  19  8
13  17  8
13  18  8
15  16  8
15  17  8
18  20  8
19  21  8
20  21  8
25  26  8
25  27  8
26  28  8
27  29  8
28  30  8
29  30  8

$$$$
