6850744
  -OEChem-05181307412D

 29 30  0     1  0  0  0  0  0999 V2000
    2.5989   -2.3743    0.0000 O   0  0  0  0  0  0  0  0  0  0  0  0
    4.5897   -0.4083    0.0000 C   0  0  1  0  0  0  0  0  0  0  0  0
    4.1120    1.5402    0.0000 C   0  0  0  0  0  0  0  0  0  0  0  0
    4.8486    0.5576    0.0000 C   0  0  2  0  0  0  0  0  0  0  0  0
    2.8577   -1.4083    0.0000 C   0  0  3  0  0  0  0  0  0  0  0  0
    6.4217   -1.1672    0.0000 C   0  0  0  0  0  0  0  0  0  0  0  0
    2.3577   -0.5423    0.0000 C   0  0  0  0  0  0  0  0  0  0  0  0
    6.6805   -0.2012    0.0000 C   0  0  0  0  0  0  0  0  0  0  0  0
    4.3309   -1.3743    0.0000 C   0  0  0  0  0  0  0  0  0  0  0  0
    4.2165    2.5347    0.0000 C   0  0  0  0  0  0  0  0  0  0  0  0
    3.1984    1.9469    0.0000 C   0  0  0  0  0  0  0  0  0  0  0  0
    5.0686    1.3786    0.0000 H   0  0  0  0  0  0  0  0  0  0  0  0
    2.0150   -1.5193    0.0000 H   0  0  0  0  0  0  0  0  0  0  0  0
    6.2096   -1.7498    0.0000 H   0  0  0  0  0  0  0  0  0  0  0  0
    7.0130   -1.3536    0.0000 H   0  0  0  0  0  0  0  0  0  0  0  0
    2.0870    0.0155    0.0000 H   0  0  0  0  0  0  0  0  0  0  0  0
    1.8100   -0.8328    0.0000 H   0  0  0  0  0  0  0  0  0  0  0  0
    7.2718   -0.3877    0.0000 H   0  0  0  0  0  0  0  0  0  0  0  0
    6.8926    0.3814    0.0000 H   0  0  0  0  0  0  0  0  0  0  0  0
    3.7320   -1.2138    0.0000 H   0  0  0  0  0  0  0  0  0  0  0  0
    4.1705   -1.9731    0.0000 H   0  0  0  0  0  0  0  0  0  0  0  0
    4.9298   -1.5347    0.0000 H   0  0  0  0  0  0  0  0  0  0  0  0
    3.4506    2.5133    0.0000 H   0  0  0  0  0  0  0  0  0  0  0  0
    2.6320    2.1991    0.0000 H   0  0  0  0  0  0  0  0  0  0  0  0
    2.9462    1.3805    0.0000 H   0  0  0  0  0  0  0  0  0  0  0  0
    4.8331    2.4699    0.0000 H   0  0  0  0  0  0  0  0  0  0  0  0
    4.2813    3.1513    0.0000 H   0  0  0  0  0  0  0  0  0  0  0  0
    3.5999    2.5995    0.0000 H   0  0  0  0  0  0  0  0  0  0  0  0
    2.0000   -2.5347    0.0000 H   0  0  0  0  0  0  0  0  0  0  0  0
  1  5  1  0  0  0  0
  1 29  1  0  0  0  0
  2  3  1  0  0  0  0
  2  5  1  0  0  0  0
  2  6  1  0  0  0  0
  2  9  1  1  0  0  0
  3  4  1  0  0  0  0
  3 10  1  0  0  0  0
  3 11  1  0  0  0  0
  4  7  1  0  0  0  0
  4  8  1  0  0  0  0
  4 12  1  6  0  0  0
  5  7  1  0  0  0  0
  5 13  1  0  0  0  0
  6  8  1  0  0  0  0
  6 14  1  0  0  0  0
  6 15  1  0  0  0  0
  7 16  1  0  0  0  0
  7 17  1  0  0  0  0
  8 18  1  0  0  0  0
  8 19  1  0  0  0  0
  9 20  1  0  0  0  0
  9 21  1  0  0  0  0
  9 22  1  0  0  0  0
 10 26  1  0  0  0  0
 10 27  1  0  0  0  0
 10 28  1  0  0  0  0
 11 23  1  0  0  0  0
 11 24  1  0  0  0  0
 11 25  1  0  0  0  0
M  END
> <PUBCHEM_COMPOUND_CID>
6850744

> <PUBCHEM_COMPOUND_CANONICALIZED>
1

> <PUBCHEM_CACTVS_COMPLEXITY>
185

> <PUBCHEM_CACTVS_HBOND_ACCEPTOR>
1

> <PUBCHEM_CACTVS_HBOND_DONOR>
1

> <PUBCHEM_CACTVS_ROTATABLE_BOND>
0

> <PUBCHEM_CACTVS_SUBSKEYS>
AAADceBwIAAAAAAAAAAAAAAAAAAAAYMAAAAwAAAAAAAAAAAAAAAAGgAACAAADxSggAICAAAAAgAAAAAAAAAAAAAAAAAAAAAAAAAAEAIAAAAAQAAEAAAAAAGAwPAPgAAAAAAAAACAAAIAABAAAYAADAAAAA==

> <PUBCHEM_IUPAC_OPENEYE_NAME>
(1S,4S)-1,7,7-trimethylnorbornan-2-ol

> <PUBCHEM_IUPAC_CAS_NAME>
(1S,4S)-4,7,7-trimethyl-3-bicyclo[2.2.1]heptanol

> <PUBCHEM_IUPAC_NAME>
(1S,4S)-4,7,7-trimethylbicyclo[2.2.1]heptan-3-ol

> <PUBCHEM_IUPAC_SYSTEMATIC_NAME>
(1S,4S)-4,7,7-trimethylbicyclo[2.2.1]heptan-3-ol

> <PUBCHEM_IUPAC_TRADITIONAL_NAME>
(1S,4S)-1,7,7-trimethylnorbornan-2-ol

> <PUBCHEM_IUPAC_INCHI>
InChI=1S/C10H18O/c1-9(2)7-4-5-10(9,3)8(11)6-7/h7-8,11H,4-6H2,1-3H3/t7-,8?,10+/m0/s1

> <PUBCHEM_IUPAC_INCHIKEY>
DTGKSKDOIYIVQL-HKJUDDBKSA-N

> <PUBCHEM_XLOGP3>
2.7

> <PUBCHEM_EXACT_MASS>
154.135765

> <PUBCHEM_MOLECULAR_FORMULA>
C10H18O

> <PUBCHEM_MOLECULAR_WEIGHT>
154.24932

> <PUBCHEM_OPENEYE_CAN_SMILES>
CC1(C2CCC1(C(C2)O)C)C

> <PUBCHEM_OPENEYE_ISO_SMILES>
C[C@]12CC[C@H](C1(C)C)CC2O

> <PUBCHEM_CACTVS_TPSA>
20.2

> <PUBCHEM_MONOISOTOPIC_WEIGHT>
154.135765

> <PUBCHEM_TOTAL_CHARGE>
0

> <PUBCHEM_HEAVY_ATOM_COUNT>
11

> <PUBCHEM_ATOM_DEF_STEREO_COUNT>
2

> <PUBCHEM_ATOM_UDEF_STEREO_COUNT>
1

> <PUBCHEM_BOND_DEF_STEREO_COUNT>
0

> <PUBCHEM_BOND_UDEF_STEREO_COUNT>
0

> <PUBCHEM_ISOTOPIC_ATOM_COUNT>
0

> <PUBCHEM_COMPONENT_COUNT>
1

> <PUBCHEM_CACTVS_TAUTO_COUNT>
1

> <PUBCHEM_COORDINATE_TYPE>
1
5
255

> <PUBCHEM_BONDANNOTATIONS>
2  9  5
4  12  6
5  13  3

$$$$
6850755
  -OEChem-05181307412D

 38 41  0     0  0  0  0  0  0999 V2000
   12.6588   -1.0000    0.0000 S   0  0  0  0  0  0  0  0  0  0  0  0
    3.4030    1.0000    0.0000 S   0  0  0  0  0  0  0  0  0  0  0  0
    8.8038   -1.7552    0.0000 O   0  0  0  0  0  0  0  0  0  0  0  0
    7.2579   -1.7552    0.0000 O   0  0  0  0  0  0  0  0  0  0  0  0
   13.5248   -1.5000    0.0000 O   0  0  0  0  0  0  0  0  0  0  0  0
    2.5369    1.5000    0.0000 O   0  0  0  0  0  0  0  0  0  0  0  0
   13.1588   -0.1340    0.0000 O   0  0  0  0  0  0  0  0  0  0  0  0
   12.1588   -1.8660    0.0000 O   0  0  0  0  0  0  0  0  0  0  0  0
    2.9030    0.1340    0.0000 O   0  0  0  0  0  0  0  0  0  0  0  0
    3.9030    1.8660    0.0000 O   0  0  0  0  0  0  0  0  0  0  0  0
    6.9473    0.8047    0.0000 N   0  0  0  0  0  0  0  0  0  0  0  0
    9.1145    0.8047    0.0000 N   0  0  0  0  0  0  0  0  0  0  0  0
    8.5309    0.0000    0.0000 C   0  0  0  0  0  0  0  0  0  0  0  0
    7.5309    0.0000    0.0000 C   0  0  0  0  0  0  0  0  0  0  0  0
   10.0607   -0.5000    0.0000 C   0  0  0  0  0  0  0  0  0  0  0  0
    6.0010    0.5000    0.0000 C   0  0  0  0  0  0  0  0  0  0  0  0
   10.0607    0.5000    0.0000 C   0  0  0  0  0  0  0  0  0  0  0  0
    6.0010   -0.5000    0.0000 C   0  0  0  0  0  0  0  0  0  0  0  0
    9.1145   -0.8047    0.0000 C   0  0  0  0  0  0  0  0  0  0  0  0
    6.9473   -0.8047    0.0000 C   0  0  0  0  0  0  0  0  0  0  0  0
   10.9267   -1.0000    0.0000 C   0  0  0  0  0  0  0  0  0  0  0  0
    5.1350    1.0000    0.0000 C   0  0  0  0  0  0  0  0  0  0  0  0
   10.9267    1.0000    0.0000 C   0  0  0  0  0  0  0  0  0  0  0  0
    5.1350   -1.0000    0.0000 C   0  0  0  0  0  0  0  0  0  0  0  0
   11.7927   -0.5000    0.0000 C   0  0  0  0  0  0  0  0  0  0  0  0
    4.2690    0.5000    0.0000 C   0  0  0  0  0  0  0  0  0  0  0  0
   11.7927    0.5000    0.0000 C   0  0  0  0  0  0  0  0  0  0  0  0
    4.2690   -0.5000    0.0000 C   0  0  0  0  0  0  0  0  0  0  0  0
    7.1399    1.3940    0.0000 H   0  0  0  0  0  0  0  0  0  0  0  0
    8.9219    1.3940    0.0000 H   0  0  0  0  0  0  0  0  0  0  0  0
   10.9267   -1.6200    0.0000 H   0  0  0  0  0  0  0  0  0  0  0  0
    5.1350    1.6200    0.0000 H   0  0  0  0  0  0  0  0  0  0  0  0
   10.9267    1.6200    0.0000 H   0  0  0  0  0  0  0  0  0  0  0  0
    5.1350   -1.6200    0.0000 H   0  0  0  0  0  0  0  0  0  0  0  0
   12.3297    0.8100    0.0000 H   0  0  0  0  0  0  0  0  0  0  0  0
    3.7320   -0.8100    0.0000 H   0  0  0  0  0  0  0  0  0  0  0  0
   14.0617   -1.1900    0.0000 H   0  0  0  0  0  0  0  0  0  0  0  0
    2.0000    1.1900    0.0000 H   0  0  0  0  0  0  0  0  0  0  0  0
  1  5  1  0  0  0  0
  1  7  2  0  0  0  0
  1  8  2  0  0  0  0
  1 25  1  0  0  0  0
  2  6  1  0  0  0  0
  2  9  2  0  0  0  0
  2 10  2  0  0  0  0
  2 26  1  0  0  0  0
  3 19  2  0  0  0  0
  4 20  2  0  0  0  0
  5 37  1  0  0  0  0
  6 38  1  0  0  0  0
 11 14  1  0  0  0  0
 11 16  1  0  0  0  0
 11 29  1  0  0  0  0
 12 13  1  0  0  0  0
 12 17  1  0  0  0  0
 12 30  1  0  0  0  0
 13 14  2  0  0  0  0
 13 19  1  0  0  0  0
 14 20  1  0  0  0  0
 15 17  2  0  0  0  0
 15 19  1  0  0  0  0
 15 21  1  0  0  0  0
 16 18  2  0  0  0  0
 16 22  1  0  0  0  0
 17 23  1  0  0  0  0
 18 20  1  0  0  0  0
 18 24  1  0  0  0  0
 21 25  2  0  0  0  0
 21 31  1  0  0  0  0
 22 26  2  0  0  0  0
 22 32  1  0  0  0  0
 23 27  2  0  0  0  0
 23 33  1  0  0  0  0
 24 28  2  0  0  0  0
 24 34  1  0  0  0  0
 25 27  1  0  0  0  0
 26 28  1  0  0  0  0
 27 35  1  0  0  0  0
 28 36  1  0  0  0  0
M  END
> <PUBCHEM_COMPOUND_CID>
6850755

> <PUBCHEM_COMPOUND_CANONICALIZED>
1

> <PUBCHEM_CACTVS_COMPLEXITY>
960

> <PUBCHEM_CACTVS_HBOND_ACCEPTOR>
10

> <PUBCHEM_CACTVS_HBOND_DONOR>
4

> <PUBCHEM_CACTVS_ROTATABLE_BOND>
2

> <PUBCHEM_CACTVS_SUBSKEYS>
AAADccB7PABgAAAAAAAAAAAAAAAAAWLAAAAwYAAAAAAAAFgBQAAAHgQQCAAADAyB2AAwwYLAAIKIAqRSQHDCAEAlAgAIiBmAZMgIIDrAlbGEIYxgkADIyccYiICOEAQAgCACAAAgCAEAQAQAAAAAAAAAAA==

> <PUBCHEM_IUPAC_OPENEYE_NAME>
(2Z)-3-oxo-2-(3-oxo-5-sulfo-indolin-2-ylidene)indoline-6-sulfonic acid

> <PUBCHEM_IUPAC_CAS_NAME>
(2Z)-3-oxo-2-(3-oxo-5-sulfo-1H-indol-2-ylidene)-1H-indole-6-sulfonic acid

> <PUBCHEM_IUPAC_NAME>
(2Z)-3-oxo-2-(3-oxo-5-sulfo-1H-indol-2-ylidene)-1H-indole-6-sulfonic acid

> <PUBCHEM_IUPAC_SYSTEMATIC_NAME>
(2Z)-3-oxidanylidene-2-(3-oxidanylidene-5-sulfo-1H-indol-2-ylidene)-1H-indole-6-sulfonic acid

> <PUBCHEM_IUPAC_TRADITIONAL_NAME>
(2Z)-3-keto-2-(3-keto-5-sulfo-indolin-2-ylidene)indoline-6-sulfonic acid

> <PUBCHEM_IUPAC_INCHI>
InChI=1S/C16H10N2O8S2/c19-15-9-3-1-8(28(24,25)26)6-12(9)18-13(15)14-16(20)10-5-7(27(21,22)23)2-4-11(10)17-14/h1-6,17-18H,(H,21,22,23)(H,24,25,26)/b14-13-

> <PUBCHEM_IUPAC_INCHIKEY>
KGUVHFVLMDRPQH-YPKPFQOOSA-N

> <PUBCHEM_XLOGP3>
1.2

> <PUBCHEM_EXACT_MASS>
421.987857

> <PUBCHEM_MOLECULAR_FORMULA>
C16H10N2O8S2

> <PUBCHEM_MOLECULAR_WEIGHT>
422.3892

> <PUBCHEM_OPENEYE_CAN_SMILES>
C1=CC2=C(C=C1S(=O)(=O)O)NC(=C3C(=O)C4=C(N3)C=CC(=C4)S(=O)(=O)O)C2=O

> <PUBCHEM_OPENEYE_ISO_SMILES>
C1=CC2=C(C=C1S(=O)(=O)O)N/C(=C\3/C(=O)C4=C(N3)C=CC(=C4)S(=O)(=O)O)/C2=O

> <PUBCHEM_CACTVS_TPSA>
184

> <PUBCHEM_MONOISOTOPIC_WEIGHT>
421.987857

> <PUBCHEM_TOTAL_CHARGE>
0

> <PUBCHEM_HEAVY_ATOM_COUNT>
28

> <PUBCHEM_ATOM_DEF_STEREO_COUNT>
0

> <PUBCHEM_ATOM_UDEF_STEREO_COUNT>
0

> <PUBCHEM_BOND_DEF_STEREO_COUNT>
1

> <PUBCHEM_BOND_UDEF_STEREO_COUNT>
0

> <PUBCHEM_ISOTOPIC_ATOM_COUNT>
0

> <PUBCHEM_COMPONENT_COUNT>
1

> <PUBCHEM_CACTVS_TAUTO_COUNT>
46

> <PUBCHEM_COORDINATE_TYPE>
1
5
255

> <PUBCHEM_BONDANNOTATIONS>
15  17  8
15  21  8
16  18  8
16  22  8
17  23  8
18  24  8
21  25  8
22  26  8
23  27  8
24  28  8
25  27  8
26  28  8

$$$$
6852359
  -OEChem-05181307412D

 18 18  0     0  0  0  0  0  0999 V2000
    2.8660    0.7500    0.0000 N   0  0  0  0  0  0  0  0  0  0  0  0
    2.8660   -0.2500    0.0000 C   0  0  0  0  0  0  0  0  0  0  0  0
    2.0000   -0.7500    0.0000 C   0  0  0  0  0  0  0  0  0  0  0  0
    3.7320   -0.7500    0.0000 C   0  0  0  0  0  0  0  0  0  0  0  0
    2.0000   -1.7500    0.0000 C   0  0  0  0  0  0  0  0  0  0  0  0
    3.7320   -1.7500    0.0000 C   0  0  0  0  0  0  0  0  0  0  0  0
    2.8660   -2.2500    0.0000 C   0  0  0  0  0  0  0  0  0  0  0  0
    3.7320    1.2500    0.0000 C   0  0  0  0  0  0  0  0  0  0  0  0
    3.7320    2.2500    0.0000 C   0  0  0  0  0  0  0  0  0  0  0  0
    1.4631   -0.4400    0.0000 H   0  0  0  0  0  0  0  0  0  0  0  0
    4.2690   -0.4400    0.0000 H   0  0  0  0  0  0  0  0  0  0  0  0
    1.4631   -2.0600    0.0000 H   0  0  0  0  0  0  0  0  0  0  0  0
    4.2690   -2.0600    0.0000 H   0  0  0  0  0  0  0  0  0  0  0  0
    2.3291    1.0600    0.0000 H   0  0  0  0  0  0  0  0  0  0  0  0
    2.8660   -2.8700    0.0000 H   0  0  0  0  0  0  0  0  0  0  0  0
    4.2690    0.9400    0.0000 H   0  0  0  0  0  0  0  0  0  0  0  0
    4.2690    2.5600    0.0000 H   0  0  0  0  0  0  0  0  0  0  0  0
    3.1951    2.5600    0.0000 H   0  0  0  0  0  0  0  0  0  0  0  0
  1  2  1  0  0  0  0
  1  8  1  0  0  0  0
  1 14  1  0  0  0  0
  2  3  2  0  0  0  0
  2  4  1  0  0  0  0
  3  5  1  0  0  0  0
  3 10  1  0  0  0  0
  4  6  2  0  0  0  0
  4 11  1  0  0  0  0
  5  7  2  0  0  0  0
  5 12  1  0  0  0  0
  6  7  1  0  0  0  0
  6 13  1  0  0  0  0
  7 15  1  0  0  0  0
  8  9  2  0  0  0  0
  8 16  1  0  0  0  0
  9 17  1  0  0  0  0
  9 18  1  0  0  0  0
M  END
> <PUBCHEM_COMPOUND_CID>
6852359

> <PUBCHEM_COMPOUND_CANONICALIZED>
1

> <PUBCHEM_CACTVS_COMPLEXITY>
82.6

> <PUBCHEM_CACTVS_HBOND_ACCEPTOR>
1

> <PUBCHEM_CACTVS_HBOND_DONOR>
1

> <PUBCHEM_CACTVS_ROTATABLE_BOND>
2

> <PUBCHEM_CACTVS_SUBSKEYS>
AAADccByAAAAAAAAAAAAAAAAAAAAAAAAAAAwAAAAAAAAAAABAAAAHAAQAAAACAjBEAQwwILAAACAACRGQACCAAAhAgAIiIAIZIgIICLAkZGEIAhgkABIyAcQAAAAAAAAAAAAAAAAAAAAAAAAAAAAAAAAAA==

> <PUBCHEM_IUPAC_OPENEYE_NAME>
N-vinylaniline

> <PUBCHEM_IUPAC_CAS_NAME>
N-ethenylaniline

> <PUBCHEM_IUPAC_NAME>
N-ethenylaniline

> <PUBCHEM_IUPAC_SYSTEMATIC_NAME>
N-ethenylaniline

> <PUBCHEM_IUPAC_TRADITIONAL_NAME>
phenyl(vinyl)amine

> <PUBCHEM_IUPAC_INCHI>
InChI=1S/C8H9N/c1-2-9-8-6-4-3-5-7-8/h2-7,9H,1H2

> <PUBCHEM_IUPAC_INCHIKEY>
PZUGJLOCXUNFLM-UHFFFAOYSA-N

> <PUBCHEM_XLOGP3>
2.1

> <PUBCHEM_EXACT_MASS>
119.073499

> <PUBCHEM_MOLECULAR_FORMULA>
C8H9N

> <PUBCHEM_MOLECULAR_WEIGHT>
119.16376

> <PUBCHEM_OPENEYE_CAN_SMILES>
C=CNC1=CC=CC=C1

> <PUBCHEM_OPENEYE_ISO_SMILES>
C=CNC1=CC=CC=C1

> <PUBCHEM_CACTVS_TPSA>
12

> <PUBCHEM_MONOISOTOPIC_WEIGHT>
119.073499

> <PUBCHEM_TOTAL_CHARGE>
0

> <PUBCHEM_HEAVY_ATOM_COUNT>
9

> <PUBCHEM_ATOM_DEF_STEREO_COUNT>
0

> <PUBCHEM_ATOM_UDEF_STEREO_COUNT>
0

> <PUBCHEM_BOND_DEF_STEREO_COUNT>
0

> <PUBCHEM_BOND_UDEF_STEREO_COUNT>
0

> <PUBCHEM_ISOTOPIC_ATOM_COUNT>
0

> <PUBCHEM_COMPONENT_COUNT>
1

> <PUBCHEM_CACTVS_TAUTO_COUNT>
2

> <PUBCHEM_COORDINATE_TYPE>
1
5
255

> <PUBCHEM_BONDANNOTATIONS>
2  3  8
2  4  8
3  5  8
4  6  8
5  7  8
6  7  8

$$$$
6854926
  -OEChem-05181307412D

 47 50  0     1  0  0  0  0  0999 V2000
    6.7619   -3.4283    0.0000 Cl  0  0  0  0  0  0  0  0  0  0  0  0
    4.4025    1.7351    0.0000 O   0  0  0  0  0  0  0  0  0  0  0  0
    6.7485    0.6433    0.0000 O   0  0  0  0  0  0  0  0  0  0  0  0
    6.7523    2.8188    0.0000 O   0  0  0  0  0  0  0  0  0  0  0  0
    3.7066    3.7043    0.0000 O   0  0  0  0  0  0  0  0  0  0  0  0
    4.6783   -0.0254    0.0000 N   0  0  0  0  0  0  0  0  0  0  0  0
    4.6783   -1.6349    0.0000 N   0  0  0  0  0  0  0  0  0  0  0  0
    6.2619   -0.8302    0.0000 N   0  0  0  0  0  0  0  0  0  0  0  0
    2.8660    0.1698    0.0000 N   0  0  0  0  0  0  0  0  0  0  0  0
    2.0000   -1.3302    0.0000 N   0  0  0  0  0  0  0  0  0  0  0  0
    6.7619   -1.6962    0.0000 N   0  0  0  0  0  0  0  0  0  0  0  0
    2.8660   -2.8302    0.0000 N   0  0  0  0  0  0  0  0  0  0  0  0
    5.9405    1.2324    0.0000 C   0  0  1  0  0  0  0  0  0  0  0  0
    4.9889    0.9251    0.0000 C   0  0  1  0  0  0  0  0  0  0  0  0
    5.9423    2.2324    0.0000 C   0  0  1  0  0  0  0  0  0  0  0  0
    4.9917    2.5431    0.0000 C   0  0  2  0  0  0  0  0  0  0  0  0
    4.6844    3.4947    0.0000 C   0  0  0  0  0  0  0  0  0  0  0  0
    3.7321   -0.3302    0.0000 C   0  0  0  0  0  0  0  0  0  0  0  0
    5.2619   -0.8302    0.0000 C   0  0  0  0  0  0  0  0  0  0  0  0
    3.7321   -1.3302    0.0000 C   0  0  0  0  0  0  0  0  0  0  0  0
    2.8660   -1.8302    0.0000 C   0  0  0  0  0  0  0  0  0  0  0  0
    2.0000   -0.3302    0.0000 C   0  0  0  0  0  0  0  0  0  0  0  0
    7.7619   -1.6962    0.0000 C   0  0  0  0  0  0  0  0  0  0  0  0
    8.2619   -2.5622    0.0000 C   0  0  0  0  0  0  0  0  0  0  0  0
    7.7619   -3.4283    0.0000 C   0  0  0  0  0  0  0  0  0  0  0  0
    9.2619   -2.5622    0.0000 C   0  0  0  0  0  0  0  0  0  0  0  0
    8.2619   -4.2943    0.0000 C   0  0  0  0  0  0  0  0  0  0  0  0
    9.7619   -3.4283    0.0000 C   0  0  0  0  0  0  0  0  0  0  0  0
    9.2619   -4.2943    0.0000 C   0  0  0  0  0  0  0  0  0  0  0  0
    5.8425    0.6202    0.0000 H   0  0  0  0  0  0  0  0  0  0  0  0
    5.4266    0.4859    0.0000 H   0  0  0  0  0  0  0  0  0  0  0  0
    6.4942    1.9500    0.0000 H   0  0  0  0  0  0  0  0  0  0  0  0
    4.3795    2.6412    0.0000 H   0  0  0  0  0  0  0  0  0  0  0  0
    5.2985    3.5799    0.0000 H   0  0  0  0  0  0  0  0  0  0  0  0
    4.7071    4.1143    0.0000 H   0  0  0  0  0  0  0  0  0  0  0  0
    7.3154    0.8945    0.0000 H   0  0  0  0  0  0  0  0  0  0  0  0
    6.6885    3.4355    0.0000 H   0  0  0  0  0  0  0  0  0  0  0  0
    3.5160    4.2943    0.0000 H   0  0  0  0  0  0  0  0  0  0  0  0
    6.5719   -0.2932    0.0000 H   0  0  0  0  0  0  0  0  0  0  0  0
    1.4631   -0.0202    0.0000 H   0  0  0  0  0  0  0  0  0  0  0  0
    2.3291   -3.1402    0.0000 H   0  0  0  0  0  0  0  0  0  0  0  0
    3.4030   -3.1402    0.0000 H   0  0  0  0  0  0  0  0  0  0  0  0
    8.0719   -1.1593    0.0000 H   0  0  0  0  0  0  0  0  0  0  0  0
    9.5719   -2.0253    0.0000 H   0  0  0  0  0  0  0  0  0  0  0  0
    7.9519   -4.8312    0.0000 H   0  0  0  0  0  0  0  0  0  0  0  0
   10.3819   -3.4283    0.0000 H   0  0  0  0  0  0  0  0  0  0  0  0
    9.5719   -4.8312    0.0000 H   0  0  0  0  0  0  0  0  0  0  0  0
  1 25  1  0  0  0  0
  2 14  1  0  0  0  0
  2 16  1  0  0  0  0
  3 13  1  0  0  0  0
  3 36  1  0  0  0  0
  4 15  1  0  0  0  0
  4 37  1  0  0  0  0
  5 17  1  0  0  0  0
  5 38  1  0  0  0  0
  6 14  1  0  0  0  0
  6 18  1  0  0  0  0
  6 19  1  0  0  0  0
  7 19  2  0  0  0  0
  7 20  1  0  0  0  0
  8 11  1  0  0  0  0
  8 19  1  0  0  0  0
  8 39  1  0  0  0  0
  9 18  2  0  0  0  0
  9 22  1  0  0  0  0
 10 21  1  0  0  0  0
 10 22  2  0  0  0  0
 11 23  2  0  0  0  0
 12 21  1  0  0  0  0
 12 41  1  0  0  0  0
 12 42  1  0  0  0  0
 13 14  1  0  0  0  0
 13 15  1  0  0  0  0
 13 30  1  6  0  0  0
 14 31  1  1  0  0  0
 15 16  1  0  0  0  0
 15 32  1  6  0  0  0
 16 17  1  0  0  0  0
 16 33  1  6  0  0  0
 17 34  1  0  0  0  0
 17 35  1  0  0  0  0
 18 20  1  0  0  0  0
 20 21  2  0  0  0  0
 22 40  1  0  0  0  0
 23 24  1  0  0  0  0
 23 43  1  0  0  0  0
 24 25  1  0  0  0  0
 24 26  2  0  0  0  0
 25 27  2  0  0  0  0
 26 28  1  0  0  0  0
 26 44  1  0  0  0  0
 27 29  1  0  0  0  0
 27 45  1  0  0  0  0
 28 29  2  0  0  0  0
 28 46  1  0  0  0  0
 29 47  1  0  0  0  0
M  END
> <PUBCHEM_COMPOUND_CID>
6854926

> <PUBCHEM_COMPOUND_CANONICALIZED>
1

> <PUBCHEM_CACTVS_COMPLEXITY>
590

> <PUBCHEM_CACTVS_HBOND_ACCEPTOR>
10

> <PUBCHEM_CACTVS_HBOND_DONOR>
5

> <PUBCHEM_CACTVS_ROTATABLE_BOND>
5

> <PUBCHEM_CACTVS_SUBSKEYS>
AAADceB7uAAEAAAAAAAAAAAAAAAAAWJAAAA8QAAAAAAAAFgB/AAAHgIYCAAADB7hnyY18L9uFgCgAzZjZACSgC0xFaAN2CAoVpiLeKLB21CeZAgviALbiCfwsAIOAAAAAAABAAAAAAAAAAIAAAAAAAAAAA==

> <PUBCHEM_IUPAC_OPENEYE_NAME>
(2R,3R,4S,5S)-2-[6-amino-8-[(2Z)-2-[(2-chlorophenyl)methylene]hydrazino]purin-9-yl]-5-(hydroxymethyl)tetrahydrofuran-3,4-diol

> <PUBCHEM_IUPAC_CAS_NAME>
(2R,3R,4S,5S)-2-[6-amino-8-[(2Z)-2-[(2-chlorophenyl)methylidene]hydrazinyl]-9-purinyl]-5-(hydroxymethyl)oxolane-3,4-diol

> <PUBCHEM_IUPAC_NAME>
(2R,3R,4S,5S)-2-[6-amino-8-[(2Z)-2-[(2-chlorophenyl)methylidene]hydrazinyl]purin-9-yl]-5-(hydroxymethyl)oxolane-3,4-diol

> <PUBCHEM_IUPAC_SYSTEMATIC_NAME>
(2R,3R,4S,5S)-2-[6-azanyl-8-[(2Z)-2-[(2-chlorophenyl)methylidene]hydrazinyl]purin-9-yl]-5-(hydroxymethyl)oxolane-3,4-diol

> <PUBCHEM_IUPAC_TRADITIONAL_NAME>
(2R,3R,4S,5S)-2-[6-amino-8-[(N'Z)-N'-(2-chlorobenzylidene)hydrazino]purin-9-yl]-5-methylol-tetrahydrofuran-3,4-diol

> <PUBCHEM_IUPAC_INCHI>
InChI=1S/C17H18ClN7O4/c18-9-4-2-1-3-8(9)5-22-24-17-23-11-14(19)20-7-21-15(11)25(17)16-13(28)12(27)10(6-26)29-16/h1-5,7,10,12-13,16,26-28H,6H2,(H,23,24)(H2,19,20,21)/b22-5-/t10-,12+,13+,16+/m0/s1

> <PUBCHEM_IUPAC_INCHIKEY>
USIVRAOGSAJTAX-OORFAAJJSA-N

> <PUBCHEM_XLOGP3>
1.5

> <PUBCHEM_EXACT_MASS>
419.11088

> <PUBCHEM_MOLECULAR_FORMULA>
C17H18ClN7O4

> <PUBCHEM_MOLECULAR_WEIGHT>
419.82232

> <PUBCHEM_OPENEYE_CAN_SMILES>
C1=CC=C(C(=C1)C=NNC2=NC3=C(N2C4C(C(C(O4)CO)O)O)N=CN=C3N)Cl

> <PUBCHEM_OPENEYE_ISO_SMILES>
C1=CC=C(C(=C1)/C=N\NC2=NC3=C(N2[C@H]4[C@@H]([C@@H]([C@@H](O4)CO)O)O)N=CN=C3N)Cl

> <PUBCHEM_CACTVS_TPSA>
164

> <PUBCHEM_MONOISOTOPIC_WEIGHT>
419.11088

> <PUBCHEM_TOTAL_CHARGE>
0

> <PUBCHEM_HEAVY_ATOM_COUNT>
29

> <PUBCHEM_ATOM_DEF_STEREO_COUNT>
4

> <PUBCHEM_ATOM_UDEF_STEREO_COUNT>
0

> <PUBCHEM_BOND_DEF_STEREO_COUNT>
1

> <PUBCHEM_BOND_UDEF_STEREO_COUNT>
0

> <PUBCHEM_ISOTOPIC_ATOM_COUNT>
0

> <PUBCHEM_COMPONENT_COUNT>
1

> <PUBCHEM_CACTVS_TAUTO_COUNT>
6

> <PUBCHEM_COORDINATE_TYPE>
1
5
255

> <PUBCHEM_BONDANNOTATIONS>
10  21  8
10  22  8
13  30  6
14  31  5
15  32  6
16  33  6
18  20  8
20  21  8
24  25  8
24  26  8
25  27  8
26  28  8
27  29  8
28  29  8
6  18  8
6  19  8
7  19  8
7  20  8
9  18  8
9  22  8

$$$$
6857497
  -OEChem-05181307412D

 38 41  0     1  0  0  0  0  0999 V2000
    5.1102    1.2269    0.0000 N   0  0  0  0  0  0  0  0  0  0  0  0
    4.6660   -0.2641    0.0000 C   0  0  1  0  0  0  0  0  0  0  0  0
    5.5321    0.2359    0.0000 C   0  0  2  0  0  0  0  0  0  0  0  0
    5.5321    1.2359    0.0000 C   0  0  1  0  0  0  0  0  0  0  0  0
    4.6500   -1.3056    0.0000 C   0  0  0  0  0  0  0  0  0  0  0  0
    4.4629    0.1059    0.0000 C   0  0  0  0  0  0  0  0  0  0  0  0
    6.4421   -0.2709    0.0000 C   0  0  0  0  0  0  0  0  0  0  0  0
    3.8000    0.2359    0.0000 C   0  0  0  0  0  0  0  0  0  0  0  0
    4.6660    1.7359    0.0000 C   0  0  0  0  0  0  0  0  0  0  0  0
    5.5480   -1.8333    0.0000 C   0  0  0  0  0  0  0  0  0  0  0  0
    6.4501   -1.3125    0.0000 C   0  0  0  0  0  0  0  0  0  0  0  0
    4.3793    0.9015    0.0000 C   0  0  0  0  0  0  0  0  0  0  0  0
    3.8000    1.2359    0.0000 C   0  0  0  0  0  0  0  0  0  0  0  0
    2.9061   -0.2987    0.0000 C   0  0  0  0  0  0  0  0  0  0  0  0
    2.9061    1.7706    0.0000 C   0  0  0  0  0  0  0  0  0  0  0  0
    2.0000    0.2151    0.0000 C   0  0  0  0  0  0  0  0  0  0  0  0
    2.0000    1.2568    0.0000 C   0  0  0  0  0  0  0  0  0  0  0  0
    6.2682    0.6609    0.0000 H   0  0  0  0  0  0  0  0  0  0  0  0
    5.9571    1.9721    0.0000 H   0  0  0  0  0  0  0  0  0  0  0  0
    4.0408   -1.1901    0.0000 H   0  0  0  0  0  0  0  0  0  0  0  0
    4.4319   -1.8860    0.0000 H   0  0  0  0  0  0  0  0  0  0  0  0
    3.8682    0.2810    0.0000 H   0  0  0  0  0  0  0  0  0  0  0  0
    5.0546    0.2911    0.0000 H   0  0  0  0  0  0  0  0  0  0  0  0
    7.0537   -0.3723    0.0000 H   0  0  0  0  0  0  0  0  0  0  0  0
    6.6466    0.3144    0.0000 H   0  0  0  0  0  0  0  0  0  0  0  0
    5.0646    2.2109    0.0000 H   0  0  0  0  0  0  0  0  0  0  0  0
    4.2675    2.2109    0.0000 H   0  0  0  0  0  0  0  0  0  0  0  0
    5.1470   -2.3062    0.0000 H   0  0  0  0  0  0  0  0  0  0  0  0
    5.9453   -2.3093    0.0000 H   0  0  0  0  0  0  0  0  0  0  0  0
    6.6636   -1.8946    0.0000 H   0  0  0  0  0  0  0  0  0  0  0  0
    7.0601   -1.2017    0.0000 H   0  0  0  0  0  0  0  0  0  0  0  0
    4.1877    1.4911    0.0000 H   0  0  0  0  0  0  0  0  0  0  0  0
    3.7729    0.7726    0.0000 H   0  0  0  0  0  0  0  0  0  0  0  0
    5.2391    1.8333    0.0000 H   0  0  0  0  0  0  0  0  0  0  0  0
    2.9132   -0.9187    0.0000 H   0  0  0  0  0  0  0  0  0  0  0  0
    2.9132    2.3906    0.0000 H   0  0  0  0  0  0  0  0  0  0  0  0
    1.4643   -0.0969    0.0000 H   0  0  0  0  0  0  0  0  0  0  0  0
    1.4643    1.5688    0.0000 H   0  0  0  0  0  0  0  0  0  0  0  0
  1  4  1  0  0  0  0
  1 12  1  0  0  0  0
  1 34  1  0  0  0  0
  2  3  1  0  0  0  0
  2  5  1  1  0  0  0
  2  6  1  0  0  0  0
  2  8  1  0  0  0  0
  3  4  1  0  0  0  0
  3  7  1  0  0  0  0
  3 18  1  1  0  0  0
  4  9  1  0  0  0  0
  4 19  1  1  0  0  0
  5 10  1  0  0  0  0
  5 20  1  0  0  0  0
  5 21  1  0  0  0  0
  6 12  1  0  0  0  0
  6 22  1  0  0  0  0
  6 23  1  0  0  0  0
  7 11  1  0  0  0  0
  7 24  1  0  0  0  0
  7 25  1  0  0  0  0
  8 13  1  0  0  0  0
  8 14  2  0  0  0  0
  9 13  1  0  0  0  0
  9 26  1  0  0  0  0
  9 27  1  0  0  0  0
 10 11  1  0  0  0  0
 10 28  1  0  0  0  0
 10 29  1  0  0  0  0
 11 30  1  0  0  0  0
 11 31  1  0  0  0  0
 12 32  1  0  0  0  0
 12 33  1  0  0  0  0
 13 15  2  0  0  0  0
 14 16  1  0  0  0  0
 14 35  1  0  0  0  0
 15 17  1  0  0  0  0
 15 36  1  0  0  0  0
 16 17  2  0  0  0  0
 16 37  1  0  0  0  0
 17 38  1  0  0  0  0
M  END
> <PUBCHEM_COMPOUND_CID>
6857497

> <PUBCHEM_COMPOUND_CANONICALIZED>
1

> <PUBCHEM_CACTVS_COMPLEXITY>
300

> <PUBCHEM_CACTVS_HBOND_ACCEPTOR>
1

> <PUBCHEM_CACTVS_HBOND_DONOR>
1

> <PUBCHEM_CACTVS_ROTATABLE_BOND>
0

> <PUBCHEM_CACTVS_SUBSKEYS>
AAADceB6AAAAAAAAAAAAAAAAAAAAAAAAAAA8YMEAAAAWAADxAAAAHAAQAAAADyjBGAQwAILAAACAAiBCAAACAAAgAAAIiIAIAIgIICKAkRGEIAAgkACIiAcQgMAPgAAAAAAQAACQAASAACQAAAAAAAAAAA==

> <PUBCHEM_IUPAC_INCHI>
InChI=1S/C16H21N/c1-2-6-13-12(5-1)11-15-14-7-3-4-8-16(13,14)9-10-17-15/h1-2,5-6,14-15,17H,3-4,7-11H2/t14-,15+,16-/m0/s1

> <PUBCHEM_IUPAC_INCHIKEY>
INAXVFBXDYWQFN-XHSDSOJGSA-N

> <PUBCHEM_XLOGP3>
3

> <PUBCHEM_EXACT_MASS>
227.1674

> <PUBCHEM_MOLECULAR_FORMULA>
C16H21N

> <PUBCHEM_MOLECULAR_WEIGHT>
227.34464

> <PUBCHEM_OPENEYE_CAN_SMILES>
C1CCC23CCNC(C2C1)CC4=CC=CC=C34

> <PUBCHEM_OPENEYE_ISO_SMILES>
C1CC[C@@]23CCN[C@@H]([C@@H]2C1)CC4=CC=CC=C34

> <PUBCHEM_CACTVS_TPSA>
12

> <PUBCHEM_MONOISOTOPIC_WEIGHT>
227.1674

> <PUBCHEM_TOTAL_CHARGE>
0

> <PUBCHEM_HEAVY_ATOM_COUNT>
17

> <PUBCHEM_ATOM_DEF_STEREO_COUNT>
3

> <PUBCHEM_ATOM_UDEF_STEREO_COUNT>
0

> <PUBCHEM_BOND_DEF_STEREO_COUNT>
0

> <PUBCHEM_BOND_UDEF_STEREO_COUNT>
0

> <PUBCHEM_ISOTOPIC_ATOM_COUNT>
0

> <PUBCHEM_COMPONENT_COUNT>
1

> <PUBCHEM_CACTVS_TAUTO_COUNT>
1

> <PUBCHEM_COORDINATE_TYPE>
1
5
255

> <PUBCHEM_BONDANNOTATIONS>
13  15  8
14  16  8
15  17  8
16  17  8
2  5  5
3  18  5
4  19  5
8  13  8
8  14  8

$$$$
6858185
  -OEChem-05181307412D

 20 20  0     0  0  0  0  0  0999 V2000
    4.5981    0.7500    0.0000 O   0  0  0  0  0  0  0  0  0  0  0  0
    2.8660   -0.2500    0.0000 C   0  0  0  0  0  0  0  0  0  0  0  0
    2.8660    0.7500    0.0000 C   0  0  0  0  0  0  0  0  0  0  0  0
    2.0000   -0.7500    0.0000 C   0  0  0  0  0  0  0  0  0  0  0  0
    3.7320   -0.7500    0.0000 C   0  0  0  0  0  0  0  0  0  0  0  0
    3.7320    1.2500    0.0000 C   0  0  0  0  0  0  0  0  0  0  0  0
    2.0000   -1.7500    0.0000 C   0  0  0  0  0  0  0  0  0  0  0  0
    3.7320   -1.7500    0.0000 C   0  0  0  0  0  0  0  0  0  0  0  0
    2.8660   -2.2500    0.0000 C   0  0  0  0  0  0  0  0  0  0  0  0
    3.7320    2.2500    0.0000 C   0  0  0  0  0  0  0  0  0  0  0  0
    2.3291    1.0600    0.0000 H   0  0  0  0  0  0  0  0  0  0  0  0
    1.4631   -0.4400    0.0000 H   0  0  0  0  0  0  0  0  0  0  0  0
    4.2690   -0.4400    0.0000 H   0  0  0  0  0  0  0  0  0  0  0  0
    1.4631   -2.0600    0.0000 H   0  0  0  0  0  0  0  0  0  0  0  0
    4.2690   -2.0600    0.0000 H   0  0  0  0  0  0  0  0  0  0  0  0
    2.8660   -2.8700    0.0000 H   0  0  0  0  0  0  0  0  0  0  0  0
    4.3520    2.2500    0.0000 H   0  0  0  0  0  0  0  0  0  0  0  0
    3.7320    2.8700    0.0000 H   0  0  0  0  0  0  0  0  0  0  0  0
    3.1120    2.2500    0.0000 H   0  0  0  0  0  0  0  0  0  0  0  0
    5.1350    1.0600    0.0000 H   0  0  0  0  0  0  0  0  0  0  0  0
  1  6  1  0  0  0  0
  1 20  1  0  0  0  0
  2  3  1  0  0  0  0
  2  4  2  0  0  0  0
  2  5  1  0  0  0  0
  3  6  2  0  0  0  0
  3 11  1  0  0  0  0
  4  7  1  0  0  0  0
  4 12  1  0  0  0  0
  5  8  2  0  0  0  0
  5 13  1  0  0  0  0
  6 10  1  0  0  0  0
  7  9  2  0  0  0  0
  7 14  1  0  0  0  0
  8  9  1  0  0  0  0
  8 15  1  0  0  0  0
  9 16  1  0  0  0  0
 10 17  1  0  0  0  0
 10 18  1  0  0  0  0
 10 19  1  0  0  0  0
M  END
> <PUBCHEM_COMPOUND_CID>
6858185

> <PUBCHEM_COMPOUND_CANONICALIZED>
1

> <PUBCHEM_CACTVS_COMPLEXITY>
121

> <PUBCHEM_CACTVS_HBOND_ACCEPTOR>
1

> <PUBCHEM_CACTVS_HBOND_DONOR>
1

> <PUBCHEM_CACTVS_ROTATABLE_BOND>
1

> <PUBCHEM_CACTVS_SUBSKEYS>
AAADccBwIAAAAAAAAAAAAAAAAAAAAAAAAAAwAAAAAAAAAAABAAAAGgAACAAADASAmAAyAIAAAgCAAiBCAAACAAAgIAAIiAAAAIgIICKAERCAIAAggAAIiAcAgAAOAAAAAAAAAAAAAAAAAAAAAAAAAAAAAA==

> <PUBCHEM_IUPAC_OPENEYE_NAME>
(Z)-1-phenylprop-1-en-2-ol

> <PUBCHEM_IUPAC_CAS_NAME>
(Z)-1-phenyl-1-propen-2-ol

> <PUBCHEM_IUPAC_NAME>
(Z)-1-phenylprop-1-en-2-ol

> <PUBCHEM_IUPAC_SYSTEMATIC_NAME>
(Z)-1-phenylprop-1-en-2-ol

> <PUBCHEM_IUPAC_TRADITIONAL_NAME>
(Z)-1-phenylprop-1-en-2-ol

> <PUBCHEM_IUPAC_INCHI>
InChI=1S/C9H10O/c1-8(10)7-9-5-3-2-4-6-9/h2-7,10H,1H3/b8-7-

> <PUBCHEM_IUPAC_INCHIKEY>
CWAWZFNQHTTXAW-FPLPWBNLSA-N

> <PUBCHEM_XLOGP3>
2.3

> <PUBCHEM_EXACT_MASS>
134.073165

> <PUBCHEM_MOLECULAR_FORMULA>
C9H10O

> <PUBCHEM_MOLECULAR_WEIGHT>
134.1751

> <PUBCHEM_OPENEYE_CAN_SMILES>
CC(=CC1=CC=CC=C1)O

> <PUBCHEM_OPENEYE_ISO_SMILES>
C/C(=C/C1=CC=CC=C1)/O

> <PUBCHEM_CACTVS_TPSA>
20.2

> <PUBCHEM_MONOISOTOPIC_WEIGHT>
134.073165

> <PUBCHEM_TOTAL_CHARGE>
0

> <PUBCHEM_HEAVY_ATOM_COUNT>
10

> <PUBCHEM_ATOM_DEF_STEREO_COUNT>
0

> <PUBCHEM_ATOM_UDEF_STEREO_COUNT>
0

> <PUBCHEM_BOND_DEF_STEREO_COUNT>
1

> <PUBCHEM_BOND_UDEF_STEREO_COUNT>
0

> <PUBCHEM_ISOTOPIC_ATOM_COUNT>
0

> <PUBCHEM_COMPONENT_COUNT>
1

> <PUBCHEM_CACTVS_TAUTO_COUNT>
3

> <PUBCHEM_COORDINATE_TYPE>
1
5
255

> <PUBCHEM_BONDANNOTATIONS>
2  4  8
2  5  8
4  7  8
5  8  8
7  9  8
8  9  8

$$$$
