52458496
  -OEChem-11301218032D

 27 27  0     0  0  0  0  0  0999 V2000
    3.7320   -4.2500    0.0000 Br  0  0  0  0  0  0  0  0  0  0  0  0
    2.0000   -1.2500    0.0000 Cl  0  0  0  0  0  0  0  0  0  0  0  0
    5.4641   -0.2500    0.0000 O   0  0  0  0  0  0  0  0  0  0  0  0
    3.7320   -0.2500    0.0000 N   0  0  0  0  0  0  0  0  0  0  0  0
    3.7320   -1.2500    0.0000 C   0  0  0  0  0  0  0  0  0  0  0  0
    2.8660   -1.7500    0.0000 C   0  0  0  0  0  0  0  0  0  0  0  0
    4.5981   -1.7500    0.0000 C   0  0  0  0  0  0  0  0  0  0  0  0
    2.8660   -2.7500    0.0000 C   0  0  0  0  0  0  0  0  0  0  0  0
    4.5981   -2.7500    0.0000 C   0  0  0  0  0  0  0  0  0  0  0  0
    3.7320   -3.2500    0.0000 C   0  0  0  0  0  0  0  0  0  0  0  0
    4.5981    0.2500    0.0000 C   0  0  0  0  0  0  0  0  0  0  0  0
    4.5981    1.2500    0.0000 C   0  0  0  0  0  0  0  0  0  0  0  0
    5.4641    1.7500    0.0000 C   0  0  0  0  0  0  0  0  0  0  0  0
    5.4641    2.7500    0.0000 C   0  0  0  0  0  0  0  0  0  0  0  0
    6.3301    3.2500    0.0000 C   0  0  0  0  0  0  0  0  0  0  0  0
    6.3301    4.2500    0.0000 C   0  0  0  0  0  0  0  0  0  0  0  0
    5.1350   -1.4400    0.0000 H   0  0  0  0  0  0  0  0  0  0  0  0
    3.1951    0.0600    0.0000 H   0  0  0  0  0  0  0  0  0  0  0  0
    2.3291   -3.0600    0.0000 H   0  0  0  0  0  0  0  0  0  0  0  0
    5.1350   -3.0600    0.0000 H   0  0  0  0  0  0  0  0  0  0  0  0
    4.0611    1.5600    0.0000 H   0  0  0  0  0  0  0  0  0  0  0  0
    6.0010    1.4400    0.0000 H   0  0  0  0  0  0  0  0  0  0  0  0
    4.9272    3.0600    0.0000 H   0  0  0  0  0  0  0  0  0  0  0  0
    6.8671    2.9400    0.0000 H   0  0  0  0  0  0  0  0  0  0  0  0
    6.9501    4.2500    0.0000 H   0  0  0  0  0  0  0  0  0  0  0  0
    6.3301    4.8700    0.0000 H   0  0  0  0  0  0  0  0  0  0  0  0
    5.7101    4.2500    0.0000 H   0  0  0  0  0  0  0  0  0  0  0  0
  1 10  1  0  0  0  0
  2  6  1  0  0  0  0
  3 11  2  0  0  0  0
  4  5  1  0  0  0  0
  4 11  1  0  0  0  0
  4 18  1  0  0  0  0
  5  6  2  0  0  0  0
  5  7  1  0  0  0  0
  6  8  1  0  0  0  0
  7  9  2  0  0  0  0
  7 17  1  0  0  0  0
  8 10  2  0  0  0  0
  8 19  1  0  0  0  0
  9 10  1  0  0  0  0
  9 20  1  0  0  0  0
 11 12  1  0  0  0  0
 12 13  2  0  0  0  0
 12 21  1  0  0  0  0
 13 14  1  0  0  0  0
 13 22  1  0  0  0  0
 14 15  2  0  0  0  0
 14 23  1  0  0  0  0
 15 16  1  0  0  0  0
 15 24  1  0  0  0  0
 16 25  1  0  0  0  0
 16 26  1  0  0  0  0
 16 27  1  0  0  0  0
M  END
> <PUBCHEM_COMPOUND_CID>
52458496

> <PUBCHEM_COMPOUND_CANONICALIZED>
1

> <PUBCHEM_CACTVS_COMPLEXITY>
291

> <PUBCHEM_CACTVS_HBOND_ACCEPTOR>
1

> <PUBCHEM_CACTVS_HBOND_DONOR>
1

> <PUBCHEM_CACTVS_ROTATABLE_BOND>
3

> <PUBCHEM_CACTVS_SUBSKEYS>
AAADccByIAAEEAAAAAAAAAAAAAAAAAAAAAAwAAAAAAAAAAABAAAAHgJQAAABqAqBkCAywILAAACIACVSUACCAAAhBwQIiAAAZugIICLBk5HEIAhglADIy5cQAAAAAAAgAABAABAAAEAAAIAAIAAAAAAAAA==

> <PUBCHEM_IUPAC_OPENEYE_NAME>
(2E,4E)-N-(4-bromo-2-chloro-phenyl)hexa-2,4-dienamide

> <PUBCHEM_IUPAC_CAS_NAME>
(2E,4E)-N-(4-bromo-2-chlorophenyl)hexa-2,4-dienamide

> <PUBCHEM_IUPAC_NAME>
(2E,4E)-N-(4-bromo-2-chlorophenyl)hexa-2,4-dienamide

> <PUBCHEM_IUPAC_SYSTEMATIC_NAME>
(2E,4E)-N-(4-bromanyl-2-chloranyl-phenyl)hexa-2,4-dienamide

> <PUBCHEM_IUPAC_TRADITIONAL_NAME>
(2E,4E)-N-(4-bromo-2-chloro-phenyl)hexa-2,4-dienamide

> <PUBCHEM_IUPAC_INCHI>
InChI=1S/C12H11BrClNO/c1-2-3-4-5-12(16)15-11-7-6-9(13)8-10(11)14/h2-8H,1H3,(H,15,16)/b3-2+,5-4+

> <PUBCHEM_IUPAC_INCHIKEY>
AHGOCRCOQDSZOG-MQQKCMAXSA-N

> <PUBCHEM_XLOGP3>
3.7

> <PUBCHEM_EXACT_MASS>
298.971254

> <PUBCHEM_MOLECULAR_FORMULA>
C12H11BrClNO

> <PUBCHEM_MOLECULAR_WEIGHT>
300.57884

> <PUBCHEM_OPENEYE_CAN_SMILES>
CC=CC=CC(=O)NC1=C(C=C(C=C1)Br)Cl

> <PUBCHEM_OPENEYE_ISO_SMILES>
C/C=C/C=C/C(=O)NC1=C(C=C(C=C1)Br)Cl

> <PUBCHEM_CACTVS_TPSA>
29.1

> <PUBCHEM_MONOISOTOPIC_WEIGHT>
298.971254

> <PUBCHEM_TOTAL_CHARGE>
0

> <PUBCHEM_HEAVY_ATOM_COUNT>
16

> <PUBCHEM_ATOM_DEF_STEREO_COUNT>
0

> <PUBCHEM_ATOM_UDEF_STEREO_COUNT>
0

> <PUBCHEM_BOND_DEF_STEREO_COUNT>
2

> <PUBCHEM_BOND_UDEF_STEREO_COUNT>
0

> <PUBCHEM_ISOTOPIC_ATOM_COUNT>
0

> <PUBCHEM_COMPONENT_COUNT>
1

> <PUBCHEM_CACTVS_TAUTO_COUNT>
5

> <PUBCHEM_COORDINATE_TYPE>
1
5
255

> <PUBCHEM_BONDANNOTATIONS>
5  6  8
5  7  8
6  8  8
7  9  8
8  10  8
9  10  8

$$$$
52460885
  -OEChem-11301218032D

 54 56  0     0  0  0  0  0  0999 V2000
    6.6353   -1.2390    0.0000 O   0  0  0  0  0  0  0  0  0  0  0  0
    8.1167    0.7771    0.0000 N   0  3  0  0  0  0  0  0  0  0  0  0
    6.2781    0.4559    0.0000 N   0  0  0  0  0  0  0  0  0  0  0  0
    4.6783   -3.2609    0.0000 N   0  0  0  0  0  0  0  0  0  0  0  0
    7.5673    1.6126    0.0000 C   0  0  0  0  0  0  0  0  0  0  0  0
    8.4028    2.1620    0.0000 C   0  0  0  0  0  0  0  0  0  0  0  0
    6.6168    1.9233    0.0000 C   0  0  0  0  0  0  0  0  0  0  0  0
    7.2566    0.6621    0.0000 C   0  0  0  0  0  0  0  0  0  0  0  0
    8.4942    3.1579    0.0000 C   0  0  0  0  0  0  0  0  0  0  0  0
    6.2670    2.8601    0.0000 C   0  0  0  0  0  0  0  0  0  0  0  0
    7.7726    3.8502    0.0000 C   0  0  0  0  0  0  0  0  0  0  0  0
    6.7814    3.7177    0.0000 C   0  0  0  0  0  0  0  0  0  0  0  0
    8.6662   -0.0584    0.0000 C   0  0  0  0  0  0  0  0  0  0  0  0
    8.9522    1.3265    0.0000 C   0  0  0  0  0  0  0  0  0  0  0  0
    5.9674   -0.4947    0.0000 C   0  0  0  0  0  0  0  0  0  0  0  0
    4.9889   -0.7009    0.0000 C   0  0  0  0  0  0  0  0  0  0  0  0
    4.6783   -1.6514    0.0000 C   0  0  0  0  0  0  0  0  0  0  0  0
    3.7320   -1.9561    0.0000 C   0  0  0  0  0  0  0  0  0  0  0  0
    5.2619   -2.4561    0.0000 C   0  0  0  0  0  0  0  0  0  0  0  0
    3.7320   -2.9561    0.0000 C   0  0  0  0  0  0  0  0  0  0  0  0
    2.8660   -1.4561    0.0000 C   0  0  0  0  0  0  0  0  0  0  0  0
    2.8660   -3.4561    0.0000 C   0  0  0  0  0  0  0  0  0  0  0  0
    2.0000   -1.9561    0.0000 C   0  0  0  0  0  0  0  0  0  0  0  0
    2.0000   -2.9561    0.0000 C   0  0  0  0  0  0  0  0  0  0  0  0
    8.6196    1.5812    0.0000 H   0  0  0  0  0  0  0  0  0  0  0  0
    9.0173    2.2442    0.0000 H   0  0  0  0  0  0  0  0  0  0  0  0
    6.0022    1.8411    0.0000 H   0  0  0  0  0  0  0  0  0  0  0  0
    6.5601    1.3059    0.0000 H   0  0  0  0  0  0  0  0  0  0  0  0
    7.8384    0.2231    0.0000 H   0  0  0  0  0  0  0  0  0  0  0  0
    7.2772    0.0424    0.0000 H   0  0  0  0  0  0  0  0  0  0  0  0
    7.8704    0.5747    0.0000 H   0  0  0  0  0  0  0  0  0  0  0  0
    9.0835    2.9653    0.0000 H   0  0  0  0  0  0  0  0  0  0  0  0
    8.8131    3.6896    0.0000 H   0  0  0  0  0  0  0  0  0  0  0  0
    5.8196    3.2893    0.0000 H   0  0  0  0  0  0  0  0  0  0  0  0
    5.7490    2.5194    0.0000 H   0  0  0  0  0  0  0  0  0  0  0  0
    8.2906    4.1908    0.0000 H   0  0  0  0  0  0  0  0  0  0  0  0
    7.5557    4.4310    0.0000 H   0  0  0  0  0  0  0  0  0  0  0  0
    6.8380    4.3351    0.0000 H   0  0  0  0  0  0  0  0  0  0  0  0
    6.1921    3.9103    0.0000 H   0  0  0  0  0  0  0  0  0  0  0  0
    8.1482   -0.3991    0.0000 H   0  0  0  0  0  0  0  0  0  0  0  0
    9.0068   -0.5765    0.0000 H   0  0  0  0  0  0  0  0  0  0  0  0
    9.1842    0.2822    0.0000 H   0  0  0  0  0  0  0  0  0  0  0  0
    9.2929    0.8085    0.0000 H   0  0  0  0  0  0  0  0  0  0  0  0
    9.4703    1.6672    0.0000 H   0  0  0  0  0  0  0  0  0  0  0  0
    8.6116    1.8446    0.0000 H   0  0  0  0  0  0  0  0  0  0  0  0
    5.8640    0.9173    0.0000 H   0  0  0  0  0  0  0  0  0  0  0  0
    4.9684   -0.0812    0.0000 H   0  0  0  0  0  0  0  0  0  0  0  0
    4.3751   -0.6135    0.0000 H   0  0  0  0  0  0  0  0  0  0  0  0
    5.8819   -2.4561    0.0000 H   0  0  0  0  0  0  0  0  0  0  0  0
    4.8709   -3.8502    0.0000 H   0  0  0  0  0  0  0  0  0  0  0  0
    2.8660   -0.8361    0.0000 H   0  0  0  0  0  0  0  0  0  0  0  0
    2.8660   -4.0761    0.0000 H   0  0  0  0  0  0  0  0  0  0  0  0
    1.4631   -1.6461    0.0000 H   0  0  0  0  0  0  0  0  0  0  0  0
    1.4631   -3.2661    0.0000 H   0  0  0  0  0  0  0  0  0  0  0  0
  1 15  2  0  0  0  0
  2  5  1  0  0  0  0
  2 13  1  0  0  0  0
  2 14  1  0  0  0  0
  2 29  1  0  0  0  0
  3  8  1  0  0  0  0
  3 15  1  0  0  0  0
  3 46  1  0  0  0  0
  4 19  1  0  0  0  0
  4 20  1  0  0  0  0
  4 50  1  0  0  0  0
  5  6  1  0  0  0  0
  5  7  1  0  0  0  0
  5  8  1  0  0  0  0
  6  9  1  0  0  0  0
  6 25  1  0  0  0  0
  6 26  1  0  0  0  0
  7 10  1  0  0  0  0
  7 27  1  0  0  0  0
  7 28  1  0  0  0  0
  8 30  1  0  0  0  0
  8 31  1  0  0  0  0
  9 11  1  0  0  0  0
  9 32  1  0  0  0  0
  9 33  1  0  0  0  0
 10 12  1  0  0  0  0
 10 34  1  0  0  0  0
 10 35  1  0  0  0  0
 11 12  1  0  0  0  0
 11 36  1  0  0  0  0
 11 37  1  0  0  0  0
 12 38  1  0  0  0  0
 12 39  1  0  0  0  0
 13 40  1  0  0  0  0
 13 41  1  0  0  0  0
 13 42  1  0  0  0  0
 14 43  1  0  0  0  0
 14 44  1  0  0  0  0
 14 45  1  0  0  0  0
 15 16  1  0  0  0  0
 16 17  1  0  0  0  0
 16 47  1  0  0  0  0
 16 48  1  0  0  0  0
 17 18  1  0  0  0  0
 17 19  2  0  0  0  0
 18 20  1  0  0  0  0
 18 21  2  0  0  0  0
 19 49  1  0  0  0  0
 20 22  2  0  0  0  0
 21 23  1  0  0  0  0
 21 51  1  0  0  0  0
 22 24  1  0  0  0  0
 22 52  1  0  0  0  0
 23 24  2  0  0  0  0
 23 53  1  0  0  0  0
 24 54  1  0  0  0  0
M  CHG  1   2   1
M  END
> <PUBCHEM_COMPOUND_CID>
52460885

> <PUBCHEM_COMPOUND_CANONICALIZED>
1

> <PUBCHEM_CACTVS_COMPLEXITY>
415

> <PUBCHEM_CACTVS_HBOND_ACCEPTOR>
1

> <PUBCHEM_CACTVS_HBOND_DONOR>
3

> <PUBCHEM_CACTVS_ROTATABLE_BOND>
5

> <PUBCHEM_CACTVS_SUBSKEYS>
AAADceB7IAAAAAAAAAAAAAAAAAAAAWAAAAAwAAAABgAAAFgB8AAAHgAQAAAADIjBngQ+wPPJkACoAzV3VACCgCAxAiAI2aE4ZJgIYPLAlZGUIAhglgDIyAccicCegAAAAAACAAAAAAAAAAQAAAAAAAAAAA==

> <PUBCHEM_IUPAC_OPENEYE_NAME>
[1-[[[2-(1H-indol-3-yl)acetyl]amino]methyl]cycloheptyl]-dimethyl-ammonium

> <PUBCHEM_IUPAC_CAS_NAME>
[1-[[[2-(1H-indol-3-yl)-1-oxoethyl]amino]methyl]cycloheptyl]-dimethylammonium

> <PUBCHEM_IUPAC_NAME>
[1-[[[2-(1H-indol-3-yl)acetyl]amino]methyl]cycloheptyl]-dimethylazanium

> <PUBCHEM_IUPAC_SYSTEMATIC_NAME>
[1-[[2-(1H-indol-3-yl)ethanoylamino]methyl]cycloheptyl]-dimethyl-azanium

> <PUBCHEM_IUPAC_TRADITIONAL_NAME>
[1-[[[2-(1H-indol-3-yl)acetyl]amino]methyl]cycloheptyl]-dimethyl-ammonium

> <PUBCHEM_IUPAC_INCHI>
InChI=1S/C20H29N3O/c1-23(2)20(11-7-3-4-8-12-20)15-22-19(24)13-16-14-21-18-10-6-5-9-17(16)18/h5-6,9-10,14,21H,3-4,7-8,11-13,15H2,1-2H3,(H,22,24)/p+1

> <PUBCHEM_IUPAC_INCHIKEY>
KGVJUXWOKAZTNK-UHFFFAOYSA-O

> <PUBCHEM_XLOGP3>
3.4

> <PUBCHEM_EXACT_MASS>
328.238888

> <PUBCHEM_MOLECULAR_FORMULA>
C20H30N3O+

> <PUBCHEM_MOLECULAR_WEIGHT>
328.4717

> <PUBCHEM_OPENEYE_CAN_SMILES>
C[NH+](C)C1(CCCCCC1)CNC(=O)CC2=CNC3=CC=CC=C32

> <PUBCHEM_OPENEYE_ISO_SMILES>
C[NH+](C)C1(CCCCCC1)CNC(=O)CC2=CNC3=CC=CC=C32

> <PUBCHEM_CACTVS_TPSA>
49.3

> <PUBCHEM_MONOISOTOPIC_WEIGHT>
328.238888

> <PUBCHEM_TOTAL_CHARGE>
1

> <PUBCHEM_HEAVY_ATOM_COUNT>
24

> <PUBCHEM_ATOM_DEF_STEREO_COUNT>
0

> <PUBCHEM_ATOM_UDEF_STEREO_COUNT>
0

> <PUBCHEM_BOND_DEF_STEREO_COUNT>
0

> <PUBCHEM_BOND_UDEF_STEREO_COUNT>
0

> <PUBCHEM_ISOTOPIC_ATOM_COUNT>
0

> <PUBCHEM_COMPONENT_COUNT>
1

> <PUBCHEM_CACTVS_TAUTO_COUNT>
2

> <PUBCHEM_COORDINATE_TYPE>
1
5
255

> <PUBCHEM_BONDANNOTATIONS>
17  18  8
17  19  8
18  20  8
18  21  8
20  22  8
21  23  8
22  24  8
23  24  8
4  19  8
4  20  8

$$$$
52461420
  -OEChem-11301218032D

 55 58  0     1  0  0  0  0  0999 V2000
    5.6103    0.9316    0.0000 O   0  0  0  0  0  0  0  0  0  0  0  0
    8.8564    2.5008    0.0000 N   0  3  0  0  0  0  0  0  0  0  0  0
    7.2566    0.3935    0.0000 N   0  0  0  0  0  0  0  0  0  0  0  0
    4.6783   -3.5295    0.0000 N   0  0  0  0  0  0  0  0  0  0  0  0
    9.4456    3.3088    0.0000 C   0  0  0  0  0  0  0  0  0  0  0  0
    7.9059    2.8114    0.0000 C   0  0  0  0  0  0  0  0  0  0  0  0
    8.5458    1.5502    0.0000 C   0  0  2  0  0  0  0  0  0  0  0  0
    7.9076    3.8114    0.0000 C   0  0  0  0  0  0  0  0  0  0  0  0
    8.8592    4.1188    0.0000 C   0  0  0  0  0  0  0  0  0  0  0  0
    7.5673    1.3440    0.0000 C   0  0  0  0  0  0  0  0  0  0  0  0
    9.2136    0.8059    0.0000 C   0  0  0  0  0  0  0  0  0  0  0  0
   10.1921    1.0121    0.0000 C   0  0  0  0  0  0  0  0  0  0  0  0
    8.9030   -0.1446    0.0000 C   0  0  0  0  0  0  0  0  0  0  0  0
    6.2781    0.1873    0.0000 C   0  0  0  0  0  0  0  0  0  0  0  0
   10.8600    0.2678    0.0000 C   0  0  0  0  0  0  0  0  0  0  0  0
    9.5708   -0.8889    0.0000 C   0  0  0  0  0  0  0  0  0  0  0  0
    5.9674   -0.7633    0.0000 C   0  0  0  0  0  0  0  0  0  0  0  0
   10.5493   -0.6827    0.0000 C   0  0  0  0  0  0  0  0  0  0  0  0
    4.9889   -0.9695    0.0000 C   0  0  0  0  0  0  0  0  0  0  0  0
    4.6783   -1.9200    0.0000 C   0  0  0  0  0  0  0  0  0  0  0  0
    3.7320   -2.2247    0.0000 C   0  0  0  0  0  0  0  0  0  0  0  0
    3.7320   -3.2247    0.0000 C   0  0  0  0  0  0  0  0  0  0  0  0
    5.2619   -2.7247    0.0000 C   0  0  0  0  0  0  0  0  0  0  0  0
    2.8660   -1.7247    0.0000 C   0  0  0  0  0  0  0  0  0  0  0  0
    2.8660   -3.7247    0.0000 C   0  0  0  0  0  0  0  0  0  0  0  0
    2.0000   -2.2247    0.0000 C   0  0  0  0  0  0  0  0  0  0  0  0
    2.0000   -3.2247    0.0000 C   0  0  0  0  0  0  0  0  0  0  0  0
    9.6644    1.9116    0.0000 H   0  0  0  0  0  0  0  0  0  0  0  0
    7.2894    2.8773    0.0000 H   0  0  0  0  0  0  0  0  0  0  0  0
    7.7760    2.2052    0.0000 H   0  0  0  0  0  0  0  0  0  0  0  0
    9.9056    2.8931    0.0000 H   0  0  0  0  0  0  0  0  0  0  0  0
    9.9071    3.7228    0.0000 H   0  0  0  0  0  0  0  0  0  0  0  0
    8.1317    2.0117    0.0000 H   0  0  0  0  0  0  0  0  0  0  0  0
    7.7798    4.4181    0.0000 H   0  0  0  0  0  0  0  0  0  0  0  0
    7.2909    3.7477    0.0000 H   0  0  0  0  0  0  0  0  0  0  0  0
    9.3967    4.4278    0.0000 H   0  0  0  0  0  0  0  0  0  0  0  0
    8.6080    4.6856    0.0000 H   0  0  0  0  0  0  0  0  0  0  0  0
    7.5467    1.9637    0.0000 H   0  0  0  0  0  0  0  0  0  0  0  0
    6.9534    1.4314    0.0000 H   0  0  0  0  0  0  0  0  0  0  0  0
    7.6707   -0.0680    0.0000 H   0  0  0  0  0  0  0  0  0  0  0  0
   10.3847    1.6015    0.0000 H   0  0  0  0  0  0  0  0  0  0  0  0
    8.2963   -0.2725    0.0000 H   0  0  0  0  0  0  0  0  0  0  0  0
   11.4666    0.3957    0.0000 H   0  0  0  0  0  0  0  0  0  0  0  0
    9.3782   -1.4782    0.0000 H   0  0  0  0  0  0  0  0  0  0  0  0
    5.9880   -1.3829    0.0000 H   0  0  0  0  0  0  0  0  0  0  0  0
    6.5812   -0.8506    0.0000 H   0  0  0  0  0  0  0  0  0  0  0  0
   10.9634   -1.1442    0.0000 H   0  0  0  0  0  0  0  0  0  0  0  0
    4.9684   -0.3498    0.0000 H   0  0  0  0  0  0  0  0  0  0  0  0
    4.3751   -0.8821    0.0000 H   0  0  0  0  0  0  0  0  0  0  0  0
    5.8819   -2.7247    0.0000 H   0  0  0  0  0  0  0  0  0  0  0  0
    4.8709   -4.1188    0.0000 H   0  0  0  0  0  0  0  0  0  0  0  0
    2.8660   -1.1047    0.0000 H   0  0  0  0  0  0  0  0  0  0  0  0
    2.8660   -4.3447    0.0000 H   0  0  0  0  0  0  0  0  0  0  0  0
    1.4631   -1.9147    0.0000 H   0  0  0  0  0  0  0  0  0  0  0  0
    1.4631   -3.5347    0.0000 H   0  0  0  0  0  0  0  0  0  0  0  0
  1 14  2  0  0  0  0
  2  5  1  0  0  0  0
  2  6  1  0  0  0  0
  2  7  1  0  0  0  0
  2 28  1  0  0  0  0
  3 10  1  0  0  0  0
  3 14  1  0  0  0  0
  3 40  1  0  0  0  0
  4 22  1  0  0  0  0
  4 23  1  0  0  0  0
  4 51  1  0  0  0  0
  5  9  1  0  0  0  0
  5 31  1  0  0  0  0
  5 32  1  0  0  0  0
  6  8  1  0  0  0  0
  6 29  1  0  0  0  0
  6 30  1  0  0  0  0
  7 10  1  1  0  0  0
  7 11  1  0  0  0  0
  7 33  1  0  0  0  0
  8  9  1  0  0  0  0
  8 34  1  0  0  0  0
  8 35  1  0  0  0  0
  9 36  1  0  0  0  0
  9 37  1  0  0  0  0
 10 38  1  0  0  0  0
 10 39  1  0  0  0  0
 11 12  2  0  0  0  0
 11 13  1  0  0  0  0
 12 15  1  0  0  0  0
 12 41  1  0  0  0  0
 13 16  2  0  0  0  0
 13 42  1  0  0  0  0
 14 17  1  0  0  0  0
 15 18  2  0  0  0  0
 15 43  1  0  0  0  0
 16 18  1  0  0  0  0
 16 44  1  0  0  0  0
 17 19  1  0  0  0  0
 17 45  1  0  0  0  0
 17 46  1  0  0  0  0
 18 47  1  0  0  0  0
 19 20  1  0  0  0  0
 19 48  1  0  0  0  0
 19 49  1  0  0  0  0
 20 21  1  0  0  0  0
 20 23  2  0  0  0  0
 21 22  1  0  0  0  0
 21 24  2  0  0  0  0
 22 25  2  0  0  0  0
 23 50  1  0  0  0  0
 24 26  1  0  0  0  0
 24 52  1  0  0  0  0
 25 27  1  0  0  0  0
 25 53  1  0  0  0  0
 26 27  2  0  0  0  0
 26 54  1  0  0  0  0
 27 55  1  0  0  0  0
M  CHG  1   2   1
M  END
> <PUBCHEM_COMPOUND_CID>
52461420

> <PUBCHEM_COMPOUND_CANONICALIZED>
1

> <PUBCHEM_CACTVS_COMPLEXITY>
470

> <PUBCHEM_CACTVS_HBOND_ACCEPTOR>
1

> <PUBCHEM_CACTVS_HBOND_DONOR>
3

> <PUBCHEM_CACTVS_ROTATABLE_BOND>
7

> <PUBCHEM_CACTVS_SUBSKEYS>
AAADceB7IAAAAAAAAAAAAAAAAAAAAWLAAAAwYAAAAAAAAFgB9AAAHgAQAAAADCjBngQ8wPPJkACoAzV3VACCgCAxAiAI2aE4ZJgIYPLAkZGUIAhglgDIyAcYicCOgAAAAAACAAAAAAAAAAQAAAAAAAAAAA==

> <PUBCHEM_IUPAC_OPENEYE_NAME>
3-(1H-indol-3-yl)-N-[(2S)-2-phenyl-2-pyrrolidin-1-ium-1-yl-ethyl]propanamide

> <PUBCHEM_IUPAC_CAS_NAME>
3-(1H-indol-3-yl)-N-[(2S)-2-phenyl-2-(1-pyrrolidin-1-iumyl)ethyl]propanamide

> <PUBCHEM_IUPAC_NAME>
3-(1H-indol-3-yl)-N-[(2S)-2-phenyl-2-pyrrolidin-1-ium-1-ylethyl]propanamide

> <PUBCHEM_IUPAC_SYSTEMATIC_NAME>
3-(1H-indol-3-yl)-N-[(2S)-2-phenyl-2-pyrrolidin-1-ium-1-yl-ethyl]propanamide

> <PUBCHEM_IUPAC_TRADITIONAL_NAME>
3-(1H-indol-3-yl)-N-[(2S)-2-phenyl-2-pyrrolidin-1-ium-1-yl-ethyl]propionamide

> <PUBCHEM_IUPAC_INCHI>
InChI=1S/C23H27N3O/c27-23(13-12-19-16-24-21-11-5-4-10-20(19)21)25-17-22(26-14-6-7-15-26)18-8-2-1-3-9-18/h1-5,8-11,16,22,24H,6-7,12-15,17H2,(H,25,27)/p+1/t22-/m1/s1

> <PUBCHEM_IUPAC_INCHIKEY>
WYZLVNSRQTZKGK-JOCHJYFZSA-O

> <PUBCHEM_XLOGP3>
3.6

> <PUBCHEM_EXACT_MASS>
362.223238

> <PUBCHEM_MOLECULAR_FORMULA>
C23H28N3O+

> <PUBCHEM_MOLECULAR_WEIGHT>
362.48792

> <PUBCHEM_OPENEYE_CAN_SMILES>
C1CC[NH+](C1)C(CNC(=O)CCC2=CNC3=CC=CC=C32)C4=CC=CC=C4

> <PUBCHEM_OPENEYE_ISO_SMILES>
C1CC[NH+](C1)[C@H](CNC(=O)CCC2=CNC3=CC=CC=C32)C4=CC=CC=C4

> <PUBCHEM_CACTVS_TPSA>
49.3

> <PUBCHEM_MONOISOTOPIC_WEIGHT>
362.223238

> <PUBCHEM_TOTAL_CHARGE>
1

> <PUBCHEM_HEAVY_ATOM_COUNT>
27

> <PUBCHEM_ATOM_DEF_STEREO_COUNT>
1

> <PUBCHEM_ATOM_UDEF_STEREO_COUNT>
0

> <PUBCHEM_BOND_DEF_STEREO_COUNT>
0

> <PUBCHEM_BOND_UDEF_STEREO_COUNT>
0

> <PUBCHEM_ISOTOPIC_ATOM_COUNT>
0

> <PUBCHEM_COMPONENT_COUNT>
1

> <PUBCHEM_CACTVS_TAUTO_COUNT>
2

> <PUBCHEM_COORDINATE_TYPE>
1
5
255

> <PUBCHEM_BONDANNOTATIONS>
11  12  8
11  13  8
12  15  8
13  16  8
15  18  8
16  18  8
20  21  8
20  23  8
21  22  8
21  24  8
22  25  8
24  26  8
25  27  8
26  27  8
4  22  8
4  23  8
7  10  5

$$$$
52461422
  -OEChem-11301218032D

 55 58  0     1  0  0  0  0  0999 V2000
    5.6103    0.9316    0.0000 O   0  0  0  0  0  0  0  0  0  0  0  0
    8.8564    2.5008    0.0000 N   0  3  0  0  0  0  0  0  0  0  0  0
    7.2566    0.3935    0.0000 N   0  0  0  0  0  0  0  0  0  0  0  0
    4.6783   -3.5295    0.0000 N   0  0  0  0  0  0  0  0  0  0  0  0
    9.4456    3.3088    0.0000 C   0  0  0  0  0  0  0  0  0  0  0  0
    7.9059    2.8114    0.0000 C   0  0  0  0  0  0  0  0  0  0  0  0
    8.5458    1.5502    0.0000 C   0  0  1  0  0  0  0  0  0  0  0  0
    7.9076    3.8114    0.0000 C   0  0  0  0  0  0  0  0  0  0  0  0
    8.8592    4.1188    0.0000 C   0  0  0  0  0  0  0  0  0  0  0  0
    7.5673    1.3440    0.0000 C   0  0  0  0  0  0  0  0  0  0  0  0
    9.2136    0.8059    0.0000 C   0  0  0  0  0  0  0  0  0  0  0  0
   10.1921    1.0121    0.0000 C   0  0  0  0  0  0  0  0  0  0  0  0
    8.9030   -0.1446    0.0000 C   0  0  0  0  0  0  0  0  0  0  0  0
    6.2781    0.1873    0.0000 C   0  0  0  0  0  0  0  0  0  0  0  0
   10.8600    0.2678    0.0000 C   0  0  0  0  0  0  0  0  0  0  0  0
    9.5708   -0.8889    0.0000 C   0  0  0  0  0  0  0  0  0  0  0  0
    5.9674   -0.7633    0.0000 C   0  0  0  0  0  0  0  0  0  0  0  0
   10.5493   -0.6827    0.0000 C   0  0  0  0  0  0  0  0  0  0  0  0
    4.9889   -0.9695    0.0000 C   0  0  0  0  0  0  0  0  0  0  0  0
    4.6783   -1.9200    0.0000 C   0  0  0  0  0  0  0  0  0  0  0  0
    3.7320   -2.2247    0.0000 C   0  0  0  0  0  0  0  0  0  0  0  0
    3.7320   -3.2247    0.0000 C   0  0  0  0  0  0  0  0  0  0  0  0
    5.2619   -2.7247    0.0000 C   0  0  0  0  0  0  0  0  0  0  0  0
    2.8660   -1.7247    0.0000 C   0  0  0  0  0  0  0  0  0  0  0  0
    2.8660   -3.7247    0.0000 C   0  0  0  0  0  0  0  0  0  0  0  0
    2.0000   -2.2247    0.0000 C   0  0  0  0  0  0  0  0  0  0  0  0
    2.0000   -3.2247    0.0000 C   0  0  0  0  0  0  0  0  0  0  0  0
    9.6644    1.9116    0.0000 H   0  0  0  0  0  0  0  0  0  0  0  0
    7.2894    2.8773    0.0000 H   0  0  0  0  0  0  0  0  0  0  0  0
    7.7760    2.2052    0.0000 H   0  0  0  0  0  0  0  0  0  0  0  0
    9.9056    2.8931    0.0000 H   0  0  0  0  0  0  0  0  0  0  0  0
    9.9071    3.7228    0.0000 H   0  0  0  0  0  0  0  0  0  0  0  0
    8.1317    2.0117    0.0000 H   0  0  0  0  0  0  0  0  0  0  0  0
    7.7798    4.4181    0.0000 H   0  0  0  0  0  0  0  0  0  0  0  0
    7.2909    3.7477    0.0000 H   0  0  0  0  0  0  0  0  0  0  0  0
    9.3967    4.4278    0.0000 H   0  0  0  0  0  0  0  0  0  0  0  0
    8.6080    4.6856    0.0000 H   0  0  0  0  0  0  0  0  0  0  0  0
    7.5467    1.9637    0.0000 H   0  0  0  0  0  0  0  0  0  0  0  0
    6.9534    1.4314    0.0000 H   0  0  0  0  0  0  0  0  0  0  0  0
    7.6707   -0.0680    0.0000 H   0  0  0  0  0  0  0  0  0  0  0  0
   10.3847    1.6015    0.0000 H   0  0  0  0  0  0  0  0  0  0  0  0
    8.2963   -0.2725    0.0000 H   0  0  0  0  0  0  0  0  0  0  0  0
   11.4666    0.3957    0.0000 H   0  0  0  0  0  0  0  0  0  0  0  0
    9.3782   -1.4782    0.0000 H   0  0  0  0  0  0  0  0  0  0  0  0
    5.9880   -1.3829    0.0000 H   0  0  0  0  0  0  0  0  0  0  0  0
    6.5812   -0.8506    0.0000 H   0  0  0  0  0  0  0  0  0  0  0  0
   10.9634   -1.1442    0.0000 H   0  0  0  0  0  0  0  0  0  0  0  0
    4.9684   -0.3498    0.0000 H   0  0  0  0  0  0  0  0  0  0  0  0
    4.3751   -0.8821    0.0000 H   0  0  0  0  0  0  0  0  0  0  0  0
    5.8819   -2.7247    0.0000 H   0  0  0  0  0  0  0  0  0  0  0  0
    4.8709   -4.1188    0.0000 H   0  0  0  0  0  0  0  0  0  0  0  0
    2.8660   -1.1047    0.0000 H   0  0  0  0  0  0  0  0  0  0  0  0
    2.8660   -4.3447    0.0000 H   0  0  0  0  0  0  0  0  0  0  0  0
    1.4631   -1.9147    0.0000 H   0  0  0  0  0  0  0  0  0  0  0  0
    1.4631   -3.5347    0.0000 H   0  0  0  0  0  0  0  0  0  0  0  0
  1 14  2  0  0  0  0
  2  5  1  0  0  0  0
  2  6  1  0  0  0  0
  2  7  1  0  0  0  0
  2 28  1  0  0  0  0
  3 10  1  0  0  0  0
  3 14  1  0  0  0  0
  3 40  1  0  0  0  0
  4 22  1  0  0  0  0
  4 23  1  0  0  0  0
  4 51  1  0  0  0  0
  5  9  1  0  0  0  0
  5 31  1  0  0  0  0
  5 32  1  0  0  0  0
  6  8  1  0  0  0  0
  6 29  1  0  0  0  0
  6 30  1  0  0  0  0
  7 10  1  6  0  0  0
  7 11  1  0  0  0  0
  7 33  1  0  0  0  0
  8  9  1  0  0  0  0
  8 34  1  0  0  0  0
  8 35  1  0  0  0  0
  9 36  1  0  0  0  0
  9 37  1  0  0  0  0
 10 38  1  0  0  0  0
 10 39  1  0  0  0  0
 11 12  2  0  0  0  0
 11 13  1  0  0  0  0
 12 15  1  0  0  0  0
 12 41  1  0  0  0  0
 13 16  2  0  0  0  0
 13 42  1  0  0  0  0
 14 17  1  0  0  0  0
 15 18  2  0  0  0  0
 15 43  1  0  0  0  0
 16 18  1  0  0  0  0
 16 44  1  0  0  0  0
 17 19  1  0  0  0  0
 17 45  1  0  0  0  0
 17 46  1  0  0  0  0
 18 47  1  0  0  0  0
 19 20  1  0  0  0  0
 19 48  1  0  0  0  0
 19 49  1  0  0  0  0
 20 21  1  0  0  0  0
 20 23  2  0  0  0  0
 21 22  1  0  0  0  0
 21 24  2  0  0  0  0
 22 25  2  0  0  0  0
 23 50  1  0  0  0  0
 24 26  1  0  0  0  0
 24 52  1  0  0  0  0
 25 27  1  0  0  0  0
 25 53  1  0  0  0  0
 26 27  2  0  0  0  0
 26 54  1  0  0  0  0
 27 55  1  0  0  0  0
M  CHG  1   2   1
M  END
> <PUBCHEM_COMPOUND_CID>
52461422

> <PUBCHEM_COMPOUND_CANONICALIZED>
1

> <PUBCHEM_CACTVS_COMPLEXITY>
470

> <PUBCHEM_CACTVS_HBOND_ACCEPTOR>
1

> <PUBCHEM_CACTVS_HBOND_DONOR>
3

> <PUBCHEM_CACTVS_ROTATABLE_BOND>
7

> <PUBCHEM_CACTVS_SUBSKEYS>
AAADceB7IAAAAAAAAAAAAAAAAAAAAWLAAAAwYAAAAAAAAFgB9AAAHgAQAAAADCjBngQ8wPPJkACoAzV3VACCgCAxAiAI2aE4ZJgIYPLAkZGUIAhglgDIyAcYicCOgAAAAAACAAAAAAAAAAQAAAAAAAAAAA==

> <PUBCHEM_IUPAC_OPENEYE_NAME>
3-(1H-indol-3-yl)-N-[(2R)-2-phenyl-2-pyrrolidin-1-ium-1-yl-ethyl]propanamide

> <PUBCHEM_IUPAC_CAS_NAME>
3-(1H-indol-3-yl)-N-[(2R)-2-phenyl-2-(1-pyrrolidin-1-iumyl)ethyl]propanamide

> <PUBCHEM_IUPAC_NAME>
3-(1H-indol-3-yl)-N-[(2R)-2-phenyl-2-pyrrolidin-1-ium-1-ylethyl]propanamide

> <PUBCHEM_IUPAC_SYSTEMATIC_NAME>
3-(1H-indol-3-yl)-N-[(2R)-2-phenyl-2-pyrrolidin-1-ium-1-yl-ethyl]propanamide

> <PUBCHEM_IUPAC_TRADITIONAL_NAME>
3-(1H-indol-3-yl)-N-[(2R)-2-phenyl-2-pyrrolidin-1-ium-1-yl-ethyl]propionamide

> <PUBCHEM_IUPAC_INCHI>
InChI=1S/C23H27N3O/c27-23(13-12-19-16-24-21-11-5-4-10-20(19)21)25-17-22(26-14-6-7-15-26)18-8-2-1-3-9-18/h1-5,8-11,16,22,24H,6-7,12-15,17H2,(H,25,27)/p+1/t22-/m0/s1

> <PUBCHEM_IUPAC_INCHIKEY>
WYZLVNSRQTZKGK-QFIPXVFZSA-O

> <PUBCHEM_XLOGP3>
3.6

> <PUBCHEM_EXACT_MASS>
362.223238

> <PUBCHEM_MOLECULAR_FORMULA>
C23H28N3O+

> <PUBCHEM_MOLECULAR_WEIGHT>
362.48792

> <PUBCHEM_OPENEYE_CAN_SMILES>
C1CC[NH+](C1)C(CNC(=O)CCC2=CNC3=CC=CC=C32)C4=CC=CC=C4

> <PUBCHEM_OPENEYE_ISO_SMILES>
C1CC[NH+](C1)[C@@H](CNC(=O)CCC2=CNC3=CC=CC=C32)C4=CC=CC=C4

> <PUBCHEM_CACTVS_TPSA>
49.3

> <PUBCHEM_MONOISOTOPIC_WEIGHT>
362.223238

> <PUBCHEM_TOTAL_CHARGE>
1

> <PUBCHEM_HEAVY_ATOM_COUNT>
27

> <PUBCHEM_ATOM_DEF_STEREO_COUNT>
1

> <PUBCHEM_ATOM_UDEF_STEREO_COUNT>
0

> <PUBCHEM_BOND_DEF_STEREO_COUNT>
0

> <PUBCHEM_BOND_UDEF_STEREO_COUNT>
0

> <PUBCHEM_ISOTOPIC_ATOM_COUNT>
0

> <PUBCHEM_COMPONENT_COUNT>
1

> <PUBCHEM_CACTVS_TAUTO_COUNT>
2

> <PUBCHEM_COORDINATE_TYPE>
1
5
255

> <PUBCHEM_BONDANNOTATIONS>
11  12  8
11  13  8
12  15  8
13  16  8
15  18  8
16  18  8
20  21  8
20  23  8
21  22  8
21  24  8
22  25  8
24  26  8
25  27  8
26  27  8
4  22  8
4  23  8
7  10  6

$$$$
52465772
  -OEChem-11301218032D

 41 42  0     0  0  0  0  0  0999 V2000
    6.3301    1.7990    0.0000 Cl  0  0  0  0  0  0  0  0  0  0  0  0
    2.0000    2.2990    0.0000 O   0  0  0  0  0  0  0  0  0  0  0  0
    2.8660   -1.2010    0.0000 N   0  3  0  0  0  0  0  0  0  0  0  0
    2.8660    0.7990    0.0000 N   0  0  0  0  0  0  0  0  0  0  0  0
    2.0000   -0.7010    0.0000 C   0  0  0  0  0  0  0  0  0  0  0  0
    3.7320   -0.7010    0.0000 C   0  0  0  0  0  0  0  0  0  0  0  0
    2.3660   -2.0670    0.0000 C   0  0  0  0  0  0  0  0  0  0  0  0
    2.0000    0.2990    0.0000 C   0  0  0  0  0  0  0  0  0  0  0  0
    3.7320    0.2990    0.0000 C   0  0  0  0  0  0  0  0  0  0  0  0
    2.8660   -2.9330    0.0000 C   0  0  0  0  0  0  0  0  0  0  0  0
    2.3660   -3.7990    0.0000 C   0  0  0  0  0  0  0  0  0  0  0  0
    3.8660   -2.9330    0.0000 C   0  0  0  0  0  0  0  0  0  0  0  0
    2.8660    1.7990    0.0000 C   0  0  0  0  0  0  0  0  0  0  0  0
    3.7320    2.2990    0.0000 C   0  0  0  0  0  0  0  0  0  0  0  0
    4.5981    1.7990    0.0000 C   0  0  0  0  0  0  0  0  0  0  0  0
    3.7320    3.2990    0.0000 C   0  0  0  0  0  0  0  0  0  0  0  0
    5.4641    2.2990    0.0000 C   0  0  0  0  0  0  0  0  0  0  0  0
    4.5981    3.7990    0.0000 C   0  0  0  0  0  0  0  0  0  0  0  0
    5.4641    3.2990    0.0000 C   0  0  0  0  0  0  0  0  0  0  0  0
    3.1760   -1.7379    0.0000 H   0  0  0  0  0  0  0  0  0  0  0  0
    1.3894   -0.5933    0.0000 H   0  0  0  0  0  0  0  0  0  0  0  0
    1.7880   -1.2836    0.0000 H   0  0  0  0  0  0  0  0  0  0  0  0
    3.9441   -1.2836    0.0000 H   0  0  0  0  0  0  0  0  0  0  0  0
    4.3426   -0.5933    0.0000 H   0  0  0  0  0  0  0  0  0  0  0  0
    1.8911   -1.6685    0.0000 H   0  0  0  0  0  0  0  0  0  0  0  0
    1.8911   -2.4655    0.0000 H   0  0  0  0  0  0  0  0  0  0  0  0
    1.7880    0.8816    0.0000 H   0  0  0  0  0  0  0  0  0  0  0  0
    1.3894    0.1914    0.0000 H   0  0  0  0  0  0  0  0  0  0  0  0
    4.3426    0.1914    0.0000 H   0  0  0  0  0  0  0  0  0  0  0  0
    3.9441    0.8816    0.0000 H   0  0  0  0  0  0  0  0  0  0  0  0
    2.2460   -2.9330    0.0000 H   0  0  0  0  0  0  0  0  0  0  0  0
    3.8660   -3.5530    0.0000 H   0  0  0  0  0  0  0  0  0  0  0  0
    4.4860   -2.9330    0.0000 H   0  0  0  0  0  0  0  0  0  0  0  0
    3.8660   -2.3130    0.0000 H   0  0  0  0  0  0  0  0  0  0  0  0
    1.8291   -3.4890    0.0000 H   0  0  0  0  0  0  0  0  0  0  0  0
    2.0560   -4.3360    0.0000 H   0  0  0  0  0  0  0  0  0  0  0  0
    2.9030   -4.1090    0.0000 H   0  0  0  0  0  0  0  0  0  0  0  0
    4.5981    1.1790    0.0000 H   0  0  0  0  0  0  0  0  0  0  0  0
    3.1951    3.6090    0.0000 H   0  0  0  0  0  0  0  0  0  0  0  0
    4.5981    4.4190    0.0000 H   0  0  0  0  0  0  0  0  0  0  0  0
    6.0010    3.6090    0.0000 H   0  0  0  0  0  0  0  0  0  0  0  0
  1 17  1  0  0  0  0
  2 13  2  0  0  0  0
  3  5  1  0  0  0  0
  3  6  1  0  0  0  0
  3  7  1  0  0  0  0
  3 20  1  0  0  0  0
  4  8  1  0  0  0  0
  4  9  1  0  0  0  0
  4 13  1  0  0  0  0
  5  8  1  0  0  0  0
  5 21  1  0  0  0  0
  5 22  1  0  0  0  0
  6  9  1  0  0  0  0
  6 23  1  0  0  0  0
  6 24  1  0  0  0  0
  7 10  1  0  0  0  0
  7 25  1  0  0  0  0
  7 26  1  0  0  0  0
  8 27  1  0  0  0  0
  8 28  1  0  0  0  0
  9 29  1  0  0  0  0
  9 30  1  0  0  0  0
 10 11  1  0  0  0  0
 10 12  1  0  0  0  0
 10 31  1  0  0  0  0
 11 35  1  0  0  0  0
 11 36  1  0  0  0  0
 11 37  1  0  0  0  0
 12 32  1  0  0  0  0
 12 33  1  0  0  0  0
 12 34  1  0  0  0  0
 13 14  1  0  0  0  0
 14 15  2  0  0  0  0
 14 16  1  0  0  0  0
 15 17  1  0  0  0  0
 15 38  1  0  0  0  0
 16 18  2  0  0  0  0
 16 39  1  0  0  0  0
 17 19  2  0  0  0  0
 18 19  1  0  0  0  0
 18 40  1  0  0  0  0
 19 41  1  0  0  0  0
M  CHG  1   3   1
M  END
> <PUBCHEM_COMPOUND_CID>
52465772

> <PUBCHEM_COMPOUND_CANONICALIZED>
1

> <PUBCHEM_CACTVS_COMPLEXITY>
301

> <PUBCHEM_CACTVS_HBOND_ACCEPTOR>
1

> <PUBCHEM_CACTVS_HBOND_DONOR>
1

> <PUBCHEM_CACTVS_ROTATABLE_BOND>
3

> <PUBCHEM_CACTVS_SUBSKEYS>
AAADceBzIAAEAAAAAAAAAAAAAAAAAAAAAAA8QAAAAAAAAAABAAAAHgIQAAAADQLBmCQyAIPAAACIAiFSEACCAAAkBQAIiIEIBsgIYDKBlxGUIQhglgCIiYcYiACOAAAAIAAAAAAAAABAAAAAAAAAAAAAAA==

> <PUBCHEM_IUPAC_OPENEYE_NAME>
(3-chlorophenyl)-(4-isobutylpiperazin-4-ium-1-yl)methanone

> <PUBCHEM_IUPAC_CAS_NAME>
(3-chlorophenyl)-[4-(2-methylpropyl)-1-piperazin-4-iumyl]methanone

> <PUBCHEM_IUPAC_NAME>
(3-chlorophenyl)-[4-(2-methylpropyl)piperazin-4-ium-1-yl]methanone

> <PUBCHEM_IUPAC_SYSTEMATIC_NAME>
(3-chlorophenyl)-[4-(2-methylpropyl)piperazin-4-ium-1-yl]methanone

> <PUBCHEM_IUPAC_TRADITIONAL_NAME>
(3-chlorophenyl)-(4-isobutylpiperazin-4-ium-1-yl)methanone

> <PUBCHEM_IUPAC_INCHI>
InChI=1S/C15H21ClN2O/c1-12(2)11-17-6-8-18(9-7-17)15(19)13-4-3-5-14(16)10-13/h3-5,10,12H,6-9,11H2,1-2H3/p+1

> <PUBCHEM_IUPAC_INCHIKEY>
AVIUNPFDMUEJBP-UHFFFAOYSA-O

> <PUBCHEM_XLOGP3>
2.3

> <PUBCHEM_EXACT_MASS>
281.142066

> <PUBCHEM_MOLECULAR_FORMULA>
C15H22ClN2O+

> <PUBCHEM_MOLECULAR_WEIGHT>
281.80098

> <PUBCHEM_OPENEYE_CAN_SMILES>
CC(C)C[NH+]1CCN(CC1)C(=O)C2=CC(=CC=C2)Cl

> <PUBCHEM_OPENEYE_ISO_SMILES>
CC(C)C[NH+]1CCN(CC1)C(=O)C2=CC(=CC=C2)Cl

> <PUBCHEM_CACTVS_TPSA>
24.8

> <PUBCHEM_MONOISOTOPIC_WEIGHT>
281.142066

> <PUBCHEM_TOTAL_CHARGE>
1

> <PUBCHEM_HEAVY_ATOM_COUNT>
19

> <PUBCHEM_ATOM_DEF_STEREO_COUNT>
0

> <PUBCHEM_ATOM_UDEF_STEREO_COUNT>
0

> <PUBCHEM_BOND_DEF_STEREO_COUNT>
0

> <PUBCHEM_BOND_UDEF_STEREO_COUNT>
0

> <PUBCHEM_ISOTOPIC_ATOM_COUNT>
0

> <PUBCHEM_COMPONENT_COUNT>
1

> <PUBCHEM_CACTVS_TAUTO_COUNT>
1

> <PUBCHEM_COORDINATE_TYPE>
1
5
255

> <PUBCHEM_BONDANNOTATIONS>
14  15  8
14  16  8
15  17  8
16  18  8
17  19  8
18  19  8

$$$$
52472484
  -OEChem-11301218032D

 44 46  0     0  0  0  0  0  0999 V2000
   11.4813    2.6058    0.0000 Br  0  0  0  0  0  0  0  0  0  0  0  0
    7.9244    0.0861    0.0000 O   0  0  0  0  0  0  0  0  0  0  0  0
    4.6783   -3.0926    0.0000 N   0  0  0  0  0  0  0  0  0  0  0  0
    6.2781    0.6241    0.0000 N   0  0  0  0  0  0  0  0  0  0  0  0
    7.5673    1.7809    0.0000 N   0  0  0  0  0  0  0  0  0  0  0  0
    4.6783   -1.4831    0.0000 C   0  0  0  0  0  0  0  0  0  0  0  0
    4.9889   -0.5326    0.0000 C   0  0  0  0  0  0  0  0  0  0  0  0
    3.7320   -1.7879    0.0000 C   0  0  0  0  0  0  0  0  0  0  0  0
    3.7320   -2.7879    0.0000 C   0  0  0  0  0  0  0  0  0  0  0  0
    5.9674   -0.3264    0.0000 C   0  0  0  0  0  0  0  0  0  0  0  0
    5.2619   -2.2879    0.0000 C   0  0  0  0  0  0  0  0  0  0  0  0
    2.8660   -1.2879    0.0000 C   0  0  0  0  0  0  0  0  0  0  0  0
    2.8660   -3.2879    0.0000 C   0  0  0  0  0  0  0  0  0  0  0  0
    8.5458    1.9871    0.0000 C   0  0  0  0  0  0  0  0  0  0  0  0
    9.2136    1.2428    0.0000 C   0  0  0  0  0  0  0  0  0  0  0  0
    8.8564    2.9376    0.0000 C   0  0  0  0  0  0  0  0  0  0  0  0
    2.0000   -1.7879    0.0000 C   0  0  0  0  0  0  0  0  0  0  0  0
    2.0000   -2.7879    0.0000 C   0  0  0  0  0  0  0  0  0  0  0  0
    7.2566    0.8304    0.0000 C   0  0  0  0  0  0  0  0  0  0  0  0
   10.1921    1.4490    0.0000 C   0  0  0  0  0  0  0  0  0  0  0  0
    9.8349    3.1438    0.0000 C   0  0  0  0  0  0  0  0  0  0  0  0
   10.5028    2.3995    0.0000 C   0  0  0  0  0  0  0  0  0  0  0  0
    8.9030    0.2923    0.0000 C   0  0  0  0  0  0  0  0  0  0  0  0
    8.1886    3.6819    0.0000 C   0  0  0  0  0  0  0  0  0  0  0  0
    4.9684    0.0871    0.0000 H   0  0  0  0  0  0  0  0  0  0  0  0
    4.3751   -0.4453    0.0000 H   0  0  0  0  0  0  0  0  0  0  0  0
    5.9880   -0.9460    0.0000 H   0  0  0  0  0  0  0  0  0  0  0  0
    6.5812   -0.4137    0.0000 H   0  0  0  0  0  0  0  0  0  0  0  0
    5.8819   -2.2879    0.0000 H   0  0  0  0  0  0  0  0  0  0  0  0
    4.8709   -3.6819    0.0000 H   0  0  0  0  0  0  0  0  0  0  0  0
    2.8660   -0.6679    0.0000 H   0  0  0  0  0  0  0  0  0  0  0  0
    2.8660   -3.9079    0.0000 H   0  0  0  0  0  0  0  0  0  0  0  0
    5.8640    1.0856    0.0000 H   0  0  0  0  0  0  0  0  0  0  0  0
    1.4631   -1.4779    0.0000 H   0  0  0  0  0  0  0  0  0  0  0  0
    1.4631   -3.0979    0.0000 H   0  0  0  0  0  0  0  0  0  0  0  0
    7.1532    2.2423    0.0000 H   0  0  0  0  0  0  0  0  0  0  0  0
   10.6062    0.9875    0.0000 H   0  0  0  0  0  0  0  0  0  0  0  0
   10.0276    3.7332    0.0000 H   0  0  0  0  0  0  0  0  0  0  0  0
    8.3136    0.4849    0.0000 H   0  0  0  0  0  0  0  0  0  0  0  0
    8.7104   -0.2971    0.0000 H   0  0  0  0  0  0  0  0  0  0  0  0
    9.4923    0.0997    0.0000 H   0  0  0  0  0  0  0  0  0  0  0  0
    8.6501    4.0960    0.0000 H   0  0  0  0  0  0  0  0  0  0  0  0
    7.7745    4.1434    0.0000 H   0  0  0  0  0  0  0  0  0  0  0  0
    7.7271    3.2678    0.0000 H   0  0  0  0  0  0  0  0  0  0  0  0
  1 22  1  0  0  0  0
  2 19  2  0  0  0  0
  3  9  1  0  0  0  0
  3 11  1  0  0  0  0
  3 30  1  0  0  0  0
  4 10  1  0  0  0  0
  4 19  1  0  0  0  0
  4 33  1  0  0  0  0
  5 14  1  0  0  0  0
  5 19  1  0  0  0  0
  5 36  1  0  0  0  0
  6  7  1  0  0  0  0
  6  8  1  0  0  0  0
  6 11  2  0  0  0  0
  7 10  1  0  0  0  0
  7 25  1  0  0  0  0
  7 26  1  0  0  0  0
  8  9  1  0  0  0  0
  8 12  2  0  0  0  0
  9 13  2  0  0  0  0
 10 27  1  0  0  0  0
 10 28  1  0  0  0  0
 11 29  1  0  0  0  0
 12 17  1  0  0  0  0
 12 31  1  0  0  0  0
 13 18  1  0  0  0  0
 13 32  1  0  0  0  0
 14 15  2  0  0  0  0
 14 16  1  0  0  0  0
 15 20  1  0  0  0  0
 15 23  1  0  0  0  0
 16 21  2  0  0  0  0
 16 24  1  0  0  0  0
 17 18  2  0  0  0  0
 17 34  1  0  0  0  0
 18 35  1  0  0  0  0
 20 22  2  0  0  0  0
 20 37  1  0  0  0  0
 21 22  1  0  0  0  0
 21 38  1  0  0  0  0
 23 39  1  0  0  0  0
 23 40  1  0  0  0  0
 23 41  1  0  0  0  0
 24 42  1  0  0  0  0
 24 43  1  0  0  0  0
 24 44  1  0  0  0  0
M  END
> <PUBCHEM_COMPOUND_CID>
52472484

> <PUBCHEM_COMPOUND_CANONICALIZED>
1

> <PUBCHEM_CACTVS_COMPLEXITY>
421

> <PUBCHEM_CACTVS_HBOND_ACCEPTOR>
1

> <PUBCHEM_CACTVS_HBOND_DONOR>
3

> <PUBCHEM_CACTVS_ROTATABLE_BOND>
4

> <PUBCHEM_CACTVS_SUBSKEYS>
AAADceB7IAAAEAAAAAAAAAAAAAAAAWAAAAAwYAAAAAAAAFgB9AAAHgBQAAABrAjBHgQ/wPLJkACoAzRnVACCgCAxAiQI2aA4ZLiIIOLAkZGEIAholgLIyjcQgMAOgAAiEAACAAAAAEQgAAQAAAAAAAAAAA==

> <PUBCHEM_IUPAC_OPENEYE_NAME>
1-(4-bromo-2,6-dimethyl-phenyl)-3-[2-(1H-indol-3-yl)ethyl]urea

> <PUBCHEM_IUPAC_CAS_NAME>
1-(4-bromo-2,6-dimethylphenyl)-3-[2-(1H-indol-3-yl)ethyl]urea

> <PUBCHEM_IUPAC_NAME>
1-(4-bromo-2,6-dimethylphenyl)-3-[2-(1H-indol-3-yl)ethyl]urea

> <PUBCHEM_IUPAC_SYSTEMATIC_NAME>
1-(4-bromanyl-2,6-dimethyl-phenyl)-3-[2-(1H-indol-3-yl)ethyl]urea

> <PUBCHEM_IUPAC_TRADITIONAL_NAME>
1-(4-bromo-2,6-dimethyl-phenyl)-3-[2-(1H-indol-3-yl)ethyl]urea

> <PUBCHEM_IUPAC_INCHI>
InChI=1S/C19H20BrN3O/c1-12-9-15(20)10-13(2)18(12)23-19(24)21-8-7-14-11-22-17-6-4-3-5-16(14)17/h3-6,9-11,22H,7-8H2,1-2H3,(H2,21,23,24)

> <PUBCHEM_IUPAC_INCHIKEY>
VLVACMNBKZHPSV-UHFFFAOYSA-N

> <PUBCHEM_XLOGP3>
4.6

> <PUBCHEM_EXACT_MASS>
385.078974

> <PUBCHEM_MOLECULAR_FORMULA>
C19H20BrN3O

> <PUBCHEM_MOLECULAR_WEIGHT>
386.2856

> <PUBCHEM_OPENEYE_CAN_SMILES>
CC1=CC(=CC(=C1NC(=O)NCCC2=CNC3=CC=CC=C32)C)Br

> <PUBCHEM_OPENEYE_ISO_SMILES>
CC1=CC(=CC(=C1NC(=O)NCCC2=CNC3=CC=CC=C32)C)Br

> <PUBCHEM_CACTVS_TPSA>
56.9

> <PUBCHEM_MONOISOTOPIC_WEIGHT>
385.078974

> <PUBCHEM_TOTAL_CHARGE>
0

> <PUBCHEM_HEAVY_ATOM_COUNT>
24

> <PUBCHEM_ATOM_DEF_STEREO_COUNT>
0

> <PUBCHEM_ATOM_UDEF_STEREO_COUNT>
0

> <PUBCHEM_BOND_DEF_STEREO_COUNT>
0

> <PUBCHEM_BOND_UDEF_STEREO_COUNT>
0

> <PUBCHEM_ISOTOPIC_ATOM_COUNT>
0

> <PUBCHEM_COMPONENT_COUNT>
1

> <PUBCHEM_CACTVS_TAUTO_COUNT>
3

> <PUBCHEM_COORDINATE_TYPE>
1
5
255

> <PUBCHEM_BONDANNOTATIONS>
12  17  8
13  18  8
14  15  8
14  16  8
15  20  8
16  21  8
17  18  8
20  22  8
21  22  8
3  11  8
3  9  8
6  11  8
6  8  8
8  12  8
8  9  8
9  13  8

$$$$
