35058549
  -OEChem-12041211482D

 38 39  0     0  0  0  0  0  0999 V2000
    4.5981    0.7927    0.0000 O   0  0  0  0  0  0  0  0  0  0  0  0
    5.4641   -0.7073    0.0000 N   0  0  0  0  0  0  0  0  0  0  0  0
    7.1962   -0.7073    0.0000 C   0  0  0  0  0  0  0  0  0  0  0  0
    8.0622   -0.2073    0.0000 C   0  0  0  0  0  0  0  0  0  0  0  0
    6.3301   -0.2073    0.0000 C   0  0  0  0  0  0  0  0  0  0  0  0
    9.7942   -0.2073    0.0000 C   0  0  0  0  0  0  0  0  0  0  0  0
    8.9282   -0.7073    0.0000 C   0  0  0  0  0  0  0  0  0  0  0  0
    9.7942    0.7927    0.0000 C   0  0  0  0  0  0  0  0  0  0  0  0
    8.0622    0.7927    0.0000 C   0  0  0  0  0  0  0  0  0  0  0  0
    8.9282    1.2927    0.0000 C   0  0  0  0  0  0  0  0  0  0  0  0
   10.6882   -0.7420    0.0000 C   0  0  0  0  0  0  0  0  0  0  0  0
   10.6882    1.3273    0.0000 C   0  0  0  0  0  0  0  0  0  0  0  0
   11.5942   -0.2281    0.0000 C   0  0  0  0  0  0  0  0  0  0  0  0
   11.5942    0.8135    0.0000 C   0  0  0  0  0  0  0  0  0  0  0  0
    4.5981   -0.2073    0.0000 C   0  0  0  0  0  0  0  0  0  0  0  0
    3.7320   -0.7073    0.0000 C   0  0  0  0  0  0  0  0  0  0  0  0
    2.8660   -0.2073    0.0000 C   0  0  0  0  0  0  0  0  0  0  0  0
    2.0000   -0.7073    0.0000 C   0  0  0  0  0  0  0  0  0  0  0  0
    2.8660    0.7927    0.0000 C   0  0  0  0  0  0  0  0  0  0  0  0
    6.7976   -1.1823    0.0000 H   0  0  0  0  0  0  0  0  0  0  0  0
    7.5947   -1.1823    0.0000 H   0  0  0  0  0  0  0  0  0  0  0  0
    6.7287    0.2676    0.0000 H   0  0  0  0  0  0  0  0  0  0  0  0
    5.9316    0.2676    0.0000 H   0  0  0  0  0  0  0  0  0  0  0  0
    8.9282   -1.3273    0.0000 H   0  0  0  0  0  0  0  0  0  0  0  0
    7.5252    1.1027    0.0000 H   0  0  0  0  0  0  0  0  0  0  0  0
    8.9282    1.9127    0.0000 H   0  0  0  0  0  0  0  0  0  0  0  0
   10.6810   -1.3620    0.0000 H   0  0  0  0  0  0  0  0  0  0  0  0
    5.4641   -1.3273    0.0000 H   0  0  0  0  0  0  0  0  0  0  0  0
   10.6810    1.9473    0.0000 H   0  0  0  0  0  0  0  0  0  0  0  0
   12.1300   -0.5402    0.0000 H   0  0  0  0  0  0  0  0  0  0  0  0
   12.1300    1.1256    0.0000 H   0  0  0  0  0  0  0  0  0  0  0  0
    3.7320   -1.3273    0.0000 H   0  0  0  0  0  0  0  0  0  0  0  0
    3.4860    0.7927    0.0000 H   0  0  0  0  0  0  0  0  0  0  0  0
    1.6900   -0.1704    0.0000 H   0  0  0  0  0  0  0  0  0  0  0  0
    1.4631   -1.0173    0.0000 H   0  0  0  0  0  0  0  0  0  0  0  0
    2.3100   -1.2443    0.0000 H   0  0  0  0  0  0  0  0  0  0  0  0
    2.8660    1.4127    0.0000 H   0  0  0  0  0  0  0  0  0  0  0  0
    2.2460    0.7927    0.0000 H   0  0  0  0  0  0  0  0  0  0  0  0
  1 15  2  0  0  0  0
  2  5  1  0  0  0  0
  2 15  1  0  0  0  0
  2 28  1  0  0  0  0
  3  4  1  0  0  0  0
  3  5  1  0  0  0  0
  3 20  1  0  0  0  0
  3 21  1  0  0  0  0
  4  7  2  0  0  0  0
  4  9  1  0  0  0  0
  5 22  1  0  0  0  0
  5 23  1  0  0  0  0
  6  7  1  0  0  0  0
  6  8  1  0  0  0  0
  6 11  2  0  0  0  0
  7 24  1  0  0  0  0
  8 10  1  0  0  0  0
  8 12  2  0  0  0  0
  9 10  2  0  0  0  0
  9 25  1  0  0  0  0
 10 26  1  0  0  0  0
 11 13  1  0  0  0  0
 11 27  1  0  0  0  0
 12 14  1  0  0  0  0
 12 29  1  0  0  0  0
 13 14  2  0  0  0  0
 13 30  1  0  0  0  0
 14 31  1  0  0  0  0
 15 16  1  0  0  0  0
 16 17  2  0  0  0  0
 16 32  1  0  0  0  0
 17 18  1  0  0  0  0
 17 19  1  0  0  0  0
 18 34  1  0  0  0  0
 18 35  1  0  0  0  0
 18 36  1  0  0  0  0
 19 33  1  0  0  0  0
 19 37  1  0  0  0  0
 19 38  1  0  0  0  0
M  END
> <PUBCHEM_COMPOUND_CID>
35058549

> <PUBCHEM_COMPOUND_CANONICALIZED>
1

> <PUBCHEM_CACTVS_COMPLEXITY>
330

> <PUBCHEM_CACTVS_HBOND_ACCEPTOR>
1

> <PUBCHEM_CACTVS_HBOND_DONOR>
1

> <PUBCHEM_CACTVS_ROTATABLE_BOND>
4

> <PUBCHEM_CACTVS_SUBSKEYS>
AAADceB6IAAAAAAAAAAAAAAAAAAAAAAAAAAwYAAAAAAAAADBUAAAHgAQAAAADADBmAQyAMLAAACIAiFSEACCAAAgAAAIiIAIAMgIICKAkRGEIAAglgCIiQcQgMAOwAACAAAQAACAAAQAACAAAAAAAAAAAA==

> <PUBCHEM_IUPAC_OPENEYE_NAME>
3-methyl-N-[2-(2-naphthyl)ethyl]but-2-enamide

> <PUBCHEM_IUPAC_CAS_NAME>
3-methyl-N-[2-(2-naphthalenyl)ethyl]-2-butenamide

> <PUBCHEM_IUPAC_NAME>
3-methyl-N-(2-naphthalen-2-ylethyl)but-2-enamide

> <PUBCHEM_IUPAC_SYSTEMATIC_NAME>
3-methyl-N-(2-naphthalen-2-ylethyl)but-2-enamide

> <PUBCHEM_IUPAC_TRADITIONAL_NAME>
3-methyl-N-[2-(2-naphthyl)ethyl]but-2-enamide

> <PUBCHEM_IUPAC_INCHI>
InChI=1S/C17H19NO/c1-13(2)11-17(19)18-10-9-14-7-8-15-5-3-4-6-16(15)12-14/h3-8,11-12H,9-10H2,1-2H3,(H,18,19)

> <PUBCHEM_IUPAC_INCHIKEY>
BVCKTAPDCAOYQH-UHFFFAOYSA-N

> <PUBCHEM_XLOGP3>
4.6

> <PUBCHEM_EXACT_MASS>
253.146664

> <PUBCHEM_MOLECULAR_FORMULA>
C17H19NO

> <PUBCHEM_MOLECULAR_WEIGHT>
253.33886

> <PUBCHEM_OPENEYE_CAN_SMILES>
CC(=CC(=O)NCCC1=CC2=CC=CC=C2C=C1)C

> <PUBCHEM_OPENEYE_ISO_SMILES>
CC(=CC(=O)NCCC1=CC2=CC=CC=C2C=C1)C

> <PUBCHEM_CACTVS_TPSA>
29.1

> <PUBCHEM_MONOISOTOPIC_WEIGHT>
253.146664

> <PUBCHEM_TOTAL_CHARGE>
0

> <PUBCHEM_HEAVY_ATOM_COUNT>
19

> <PUBCHEM_ATOM_DEF_STEREO_COUNT>
0

> <PUBCHEM_ATOM_UDEF_STEREO_COUNT>
0

> <PUBCHEM_BOND_DEF_STEREO_COUNT>
0

> <PUBCHEM_BOND_UDEF_STEREO_COUNT>
0

> <PUBCHEM_ISOTOPIC_ATOM_COUNT>
0

> <PUBCHEM_COMPONENT_COUNT>
1

> <PUBCHEM_CACTVS_TAUTO_COUNT>
2

> <PUBCHEM_COORDINATE_TYPE>
1
5
255

> <PUBCHEM_BONDANNOTATIONS>
11  13  8
12  14  8
13  14  8
4  7  8
4  9  8
6  11  8
6  7  8
6  8  8
8  10  8
8  12  8
9  10  8

$$$$
