56483300
  -OEChem-11301218112D

 52 55  0     0  0  0  0  0  0999 V2000
    4.5981    1.4050    0.0000 S   0  0  0  0  0  0  0  0  0  0  0  0
    4.0981    0.5390    0.0000 O   0  0  0  0  0  0  0  0  0  0  0  0
    5.0981    2.2710    0.0000 O   0  0  0  0  0  0  0  0  0  0  0  0
   12.4583   -0.0709    0.0000 O   0  0  0  0  0  0  0  0  0  0  0  0
   12.4583   -2.1192    0.0000 O   0  0  0  0  0  0  0  0  0  0  0  0
    5.4641    0.9050    0.0000 N   0  0  0  0  0  0  0  0  0  0  0  0
    7.1962   -0.0950    0.0000 N   0  0  0  0  0  0  0  0  0  0  0  0
    8.9282   -0.0950    0.0000 N   0  0  0  0  0  0  0  0  0  0  0  0
    8.0622   -1.5950    0.0000 N   0  0  0  0  0  0  0  0  0  0  0  0
    2.0000    1.9050    0.0000 N   0  0  0  0  0  0  0  0  0  0  0  0
    8.9282   -3.0950    0.0000 N   0  0  0  0  0  0  0  0  0  0  0  0
    5.4641   -0.0950    0.0000 C   0  0  0  0  0  0  0  0  0  0  0  0
    6.3301    1.4050    0.0000 C   0  0  0  0  0  0  0  0  0  0  0  0
    6.3301   -0.5950    0.0000 C   0  0  0  0  0  0  0  0  0  0  0  0
    7.1962    0.9050    0.0000 C   0  0  0  0  0  0  0  0  0  0  0  0
    8.0622   -0.5950    0.0000 C   0  0  0  0  0  0  0  0  0  0  0  0
    3.7320    1.9050    0.0000 C   0  0  0  0  0  0  0  0  0  0  0  0
    9.7942   -0.5950    0.0000 C   0  0  0  0  0  0  0  0  0  0  0  0
    9.7942   -1.5950    0.0000 C   0  0  0  0  0  0  0  0  0  0  0  0
    8.9282   -2.0950    0.0000 C   0  0  0  0  0  0  0  0  0  0  0  0
    3.7320    2.9050    0.0000 C   0  0  0  0  0  0  0  0  0  0  0  0
    2.8660    1.4050    0.0000 C   0  0  0  0  0  0  0  0  0  0  0  0
   10.6882   -0.0603    0.0000 C   0  0  0  0  0  0  0  0  0  0  0  0
   10.6882   -2.1297    0.0000 C   0  0  0  0  0  0  0  0  0  0  0  0
    2.8660    3.4050    0.0000 C   0  0  0  0  0  0  0  0  0  0  0  0
   11.5942   -0.5742    0.0000 C   0  0  0  0  0  0  0  0  0  0  0  0
   11.5942   -1.6158    0.0000 C   0  0  0  0  0  0  0  0  0  0  0  0
    2.0000    2.9050    0.0000 C   0  0  0  0  0  0  0  0  0  0  0  0
   12.4545    0.9291    0.0000 C   0  0  0  0  0  0  0  0  0  0  0  0
   12.4545   -3.1191    0.0000 C   0  0  0  0  0  0  0  0  0  0  0  0
    4.8535    0.0127    0.0000 H   0  0  0  0  0  0  0  0  0  0  0  0
    5.2520   -0.6776    0.0000 H   0  0  0  0  0  0  0  0  0  0  0  0
    6.7287    1.8800    0.0000 H   0  0  0  0  0  0  0  0  0  0  0  0
    5.9316    1.8800    0.0000 H   0  0  0  0  0  0  0  0  0  0  0  0
    5.9316   -1.0700    0.0000 H   0  0  0  0  0  0  0  0  0  0  0  0
    6.7287   -1.0700    0.0000 H   0  0  0  0  0  0  0  0  0  0  0  0
    7.8067    0.7973    0.0000 H   0  0  0  0  0  0  0  0  0  0  0  0
    7.4082    1.4876    0.0000 H   0  0  0  0  0  0  0  0  0  0  0  0
    4.2690    3.2150    0.0000 H   0  0  0  0  0  0  0  0  0  0  0  0
    2.8660    0.7850    0.0000 H   0  0  0  0  0  0  0  0  0  0  0  0
   10.6810    0.5596    0.0000 H   0  0  0  0  0  0  0  0  0  0  0  0
   10.6810   -2.7496    0.0000 H   0  0  0  0  0  0  0  0  0  0  0  0
    2.8660    4.0250    0.0000 H   0  0  0  0  0  0  0  0  0  0  0  0
    8.3913   -3.4050    0.0000 H   0  0  0  0  0  0  0  0  0  0  0  0
    9.4651   -3.4050    0.0000 H   0  0  0  0  0  0  0  0  0  0  0  0
    1.4631    3.2150    0.0000 H   0  0  0  0  0  0  0  0  0  0  0  0
   13.0745    0.9315    0.0000 H   0  0  0  0  0  0  0  0  0  0  0  0
   12.4521    1.5491    0.0000 H   0  0  0  0  0  0  0  0  0  0  0  0
   11.8345    0.9268    0.0000 H   0  0  0  0  0  0  0  0  0  0  0  0
   11.8345   -3.1168    0.0000 H   0  0  0  0  0  0  0  0  0  0  0  0
   12.4521   -3.7391    0.0000 H   0  0  0  0  0  0  0  0  0  0  0  0
   13.0745   -3.1215    0.0000 H   0  0  0  0  0  0  0  0  0  0  0  0
  1  2  2  0  0  0  0
  1  3  2  0  0  0  0
  1  6  1  0  0  0  0
  1 17  1  0  0  0  0
  4 26  1  0  0  0  0
  4 29  1  0  0  0  0
  5 27  1  0  0  0  0
  5 30  1  0  0  0  0
  6 12  1  0  0  0  0
  6 13  1  0  0  0  0
  7 14  1  0  0  0  0
  7 15  1  0  0  0  0
  7 16  1  0  0  0  0
  8 16  2  0  0  0  0
  8 18  1  0  0  0  0
  9 16  1  0  0  0  0
  9 20  2  0  0  0  0
 10 22  1  0  0  0  0
 10 28  2  0  0  0  0
 11 20  1  0  0  0  0
 11 44  1  0  0  0  0
 11 45  1  0  0  0  0
 12 14  1  0  0  0  0
 12 31  1  0  0  0  0
 12 32  1  0  0  0  0
 13 15  1  0  0  0  0
 13 33  1  0  0  0  0
 13 34  1  0  0  0  0
 14 35  1  0  0  0  0
 14 36  1  0  0  0  0
 15 37  1  0  0  0  0
 15 38  1  0  0  0  0
 17 21  1  0  0  0  0
 17 22  2  0  0  0  0
 18 19  1  0  0  0  0
 18 23  2  0  0  0  0
 19 20  1  0  0  0  0
 19 24  2  0  0  0  0
 21 25  2  0  0  0  0
 21 39  1  0  0  0  0
 22 40  1  0  0  0  0
 23 26  1  0  0  0  0
 23 41  1  0  0  0  0
 24 27  1  0  0  0  0
 24 42  1  0  0  0  0
 25 28  1  0  0  0  0
 25 43  1  0  0  0  0
 26 27  2  0  0  0  0
 28 46  1  0  0  0  0
 29 47  1  0  0  0  0
 29 48  1  0  0  0  0
 29 49  1  0  0  0  0
 30 50  1  0  0  0  0
 30 51  1  0  0  0  0
 30 52  1  0  0  0  0
M  END
> <PUBCHEM_COMPOUND_CID>
56483300

> <PUBCHEM_COMPOUND_CANONICALIZED>
1

> <PUBCHEM_CACTVS_COMPLEXITY>
668

> <PUBCHEM_CACTVS_HBOND_ACCEPTOR>
10

> <PUBCHEM_CACTVS_HBOND_DONOR>
1

> <PUBCHEM_CACTVS_ROTATABLE_BOND>
5

> <PUBCHEM_CACTVS_SUBSKEYS>
AAADceB7uABAAAAAAAAAAAAAAAAAAAAAAAA8WLEAAAAAAACx/AAAHgQQQAAADAzB3gY/9/dIFAKgAzZnZHDCiDkxIqAJ2Dw+7JiNbuLE+duUNCpuwBvK6Cew0BMOIEABAgACQABAgAIEAASAAAAAAAAAAA==

> <PUBCHEM_IUPAC_OPENEYE_NAME>
6,7-dimethoxy-2-[4-(3-pyridylsulfonyl)piperazin-1-yl]quinazolin-4-amine

> <PUBCHEM_IUPAC_CAS_NAME>
6,7-dimethoxy-2-[4-(3-pyridinylsulfonyl)-1-piperazinyl]-4-quinazolinamine

> <PUBCHEM_IUPAC_NAME>
6,7-dimethoxy-2-(4-pyridin-3-ylsulfonylpiperazin-1-yl)quinazolin-4-amine

> <PUBCHEM_IUPAC_SYSTEMATIC_NAME>
6,7-dimethoxy-2-(4-pyridin-3-ylsulfonylpiperazin-1-yl)quinazolin-4-amine

> <PUBCHEM_IUPAC_TRADITIONAL_NAME>
[6,7-dimethoxy-2-[4-(3-pyridylsulfonyl)piperazino]quinazolin-4-yl]amine

> <PUBCHEM_IUPAC_INCHI>
InChI=1S/C19H22N6O4S/c1-28-16-10-14-15(11-17(16)29-2)22-19(23-18(14)20)24-6-8-25(9-7-24)30(26,27)13-4-3-5-21-12-13/h3-5,10-12H,6-9H2,1-2H3,(H2,20,22,23)

> <PUBCHEM_IUPAC_INCHIKEY>
BGTPHNSXYLJKNX-UHFFFAOYSA-N

> <PUBCHEM_XLOGP3>
1.2

> <PUBCHEM_EXACT_MASS>
430.142324

> <PUBCHEM_MOLECULAR_FORMULA>
C19H22N6O4S

> <PUBCHEM_MOLECULAR_WEIGHT>
430.48078

> <PUBCHEM_OPENEYE_CAN_SMILES>
COC1=C(C=C2C(=C1)C(=NC(=N2)N3CCN(CC3)S(=O)(=O)C4=CN=CC=C4)N)OC

> <PUBCHEM_OPENEYE_ISO_SMILES>
COC1=C(C=C2C(=C1)C(=NC(=N2)N3CCN(CC3)S(=O)(=O)C4=CN=CC=C4)N)OC

> <PUBCHEM_CACTVS_TPSA>
132

> <PUBCHEM_MONOISOTOPIC_WEIGHT>
430.142324

> <PUBCHEM_TOTAL_CHARGE>
0

> <PUBCHEM_HEAVY_ATOM_COUNT>
30

> <PUBCHEM_ATOM_DEF_STEREO_COUNT>
0

> <PUBCHEM_ATOM_UDEF_STEREO_COUNT>
0

> <PUBCHEM_BOND_DEF_STEREO_COUNT>
0

> <PUBCHEM_BOND_UDEF_STEREO_COUNT>
0

> <PUBCHEM_ISOTOPIC_ATOM_COUNT>
0

> <PUBCHEM_COMPONENT_COUNT>
1

> <PUBCHEM_CACTVS_TAUTO_COUNT>
3

> <PUBCHEM_COORDINATE_TYPE>
1
5
255

> <PUBCHEM_BONDANNOTATIONS>
10  22  8
10  28  8
17  21  8
17  22  8
18  19  8
18  23  8
19  20  8
19  24  8
21  25  8
23  26  8
24  27  8
25  28  8
26  27  8
8  16  8
8  18  8
9  16  8
9  20  8

$$$$
