51077869
  -OEChem-11301217592D

 36 37  0     0  0  0  0  0  0999 V2000
    4.5981   -1.2673    0.0000 O   0  0  0  0  0  0  0  0  0  0  0  0
    5.4641    0.2327    0.0000 N   0  0  0  0  0  0  0  0  0  0  0  0
    5.4641    1.2327    0.0000 C   0  0  0  0  0  0  0  0  0  0  0  0
    6.3301    1.7327    0.0000 C   0  0  0  0  0  0  0  0  0  0  0  0
    6.3301   -0.2673    0.0000 C   0  0  0  0  0  0  0  0  0  0  0  0
    7.1962    1.2327    0.0000 C   0  0  0  0  0  0  0  0  0  0  0  0
    7.1962    0.2327    0.0000 C   0  0  0  0  0  0  0  0  0  0  0  0
    4.5981   -0.2673    0.0000 C   0  0  0  0  0  0  0  0  0  0  0  0
    8.0901    1.7673    0.0000 C   0  0  0  0  0  0  0  0  0  0  0  0
    8.0901   -0.3020    0.0000 C   0  0  0  0  0  0  0  0  0  0  0  0
    3.7320    0.2327    0.0000 C   0  0  0  0  0  0  0  0  0  0  0  0
    8.9962    1.2535    0.0000 C   0  0  0  0  0  0  0  0  0  0  0  0
    8.9962    0.2119    0.0000 C   0  0  0  0  0  0  0  0  0  0  0  0
    2.8660   -0.2673    0.0000 C   0  0  0  0  0  0  0  0  0  0  0  0
    3.7320    1.2327    0.0000 C   0  0  0  0  0  0  0  0  0  0  0  0
    2.8660   -1.2673    0.0000 C   0  0  0  0  0  0  0  0  0  0  0  0
    2.0000   -1.7673    0.0000 C   0  0  0  0  0  0  0  0  0  0  0  0
    5.2520    1.8153    0.0000 H   0  0  0  0  0  0  0  0  0  0  0  0
    4.8535    1.1250    0.0000 H   0  0  0  0  0  0  0  0  0  0  0  0
    6.7287    2.2076    0.0000 H   0  0  0  0  0  0  0  0  0  0  0  0
    5.9316    2.2076    0.0000 H   0  0  0  0  0  0  0  0  0  0  0  0
    5.9316   -0.7423    0.0000 H   0  0  0  0  0  0  0  0  0  0  0  0
    6.7287   -0.7423    0.0000 H   0  0  0  0  0  0  0  0  0  0  0  0
    8.0829    2.3873    0.0000 H   0  0  0  0  0  0  0  0  0  0  0  0
    8.0829   -0.9220    0.0000 H   0  0  0  0  0  0  0  0  0  0  0  0
    9.5319    1.5656    0.0000 H   0  0  0  0  0  0  0  0  0  0  0  0
    9.5319   -0.1002    0.0000 H   0  0  0  0  0  0  0  0  0  0  0  0
    2.3291    0.0427    0.0000 H   0  0  0  0  0  0  0  0  0  0  0  0
    4.3520    1.2327    0.0000 H   0  0  0  0  0  0  0  0  0  0  0  0
    3.7320    1.8527    0.0000 H   0  0  0  0  0  0  0  0  0  0  0  0
    3.1120    1.2327    0.0000 H   0  0  0  0  0  0  0  0  0  0  0  0
    3.0781   -1.8499    0.0000 H   0  0  0  0  0  0  0  0  0  0  0  0
    3.4766   -1.1597    0.0000 H   0  0  0  0  0  0  0  0  0  0  0  0
    1.6900   -1.2304    0.0000 H   0  0  0  0  0  0  0  0  0  0  0  0
    1.4631   -2.0773    0.0000 H   0  0  0  0  0  0  0  0  0  0  0  0
    2.3100   -2.3043    0.0000 H   0  0  0  0  0  0  0  0  0  0  0  0
  1  8  2  0  0  0  0
  2  3  1  0  0  0  0
  2  5  1  0  0  0  0
  2  8  1  0  0  0  0
  3  4  1  0  0  0  0
  3 18  1  0  0  0  0
  3 19  1  0  0  0  0
  4  6  1  0  0  0  0
  4 20  1  0  0  0  0
  4 21  1  0  0  0  0
  5  7  1  0  0  0  0
  5 22  1  0  0  0  0
  5 23  1  0  0  0  0
  6  7  1  0  0  0  0
  6  9  2  0  0  0  0
  7 10  2  0  0  0  0
  8 11  1  0  0  0  0
  9 12  1  0  0  0  0
  9 24  1  0  0  0  0
 10 13  1  0  0  0  0
 10 25  1  0  0  0  0
 11 14  2  0  0  0  0
 11 15  1  0  0  0  0
 12 13  2  0  0  0  0
 12 26  1  0  0  0  0
 13 27  1  0  0  0  0
 14 16  1  0  0  0  0
 14 28  1  0  0  0  0
 15 29  1  0  0  0  0
 15 30  1  0  0  0  0
 15 31  1  0  0  0  0
 16 17  1  0  0  0  0
 16 32  1  0  0  0  0
 16 33  1  0  0  0  0
 17 34  1  0  0  0  0
 17 35  1  0  0  0  0
 17 36  1  0  0  0  0
M  END
> <PUBCHEM_COMPOUND_CID>
51077869

> <PUBCHEM_COMPOUND_CANONICALIZED>
1

> <PUBCHEM_CACTVS_COMPLEXITY>
308

> <PUBCHEM_CACTVS_HBOND_ACCEPTOR>
1

> <PUBCHEM_CACTVS_HBOND_DONOR>
0

> <PUBCHEM_CACTVS_ROTATABLE_BOND>
2

> <PUBCHEM_CACTVS_SUBSKEYS>
AAADceByIAAAAAAAAAAAAAAAAAAAAAAAAAA8QAAAAAAAAACxAAAAHgAAAAAADADBmAQyAIMAAACIAiFSEACCAAAgAAAIiAEIBMgIICKAkRGEIAhghgCIiYcQgIAOgAAAAAAQAAAAAAAAACAAAAAAAAAAAA==

> <PUBCHEM_IUPAC_OPENEYE_NAME>
(Z)-1-(3,4-dihydro-1H-isoquinolin-2-yl)-2-methyl-pent-2-en-1-one

> <PUBCHEM_IUPAC_CAS_NAME>
(Z)-1-(3,4-dihydro-1H-isoquinolin-2-yl)-2-methyl-2-penten-1-one

> <PUBCHEM_IUPAC_NAME>
(Z)-1-(3,4-dihydro-1H-isoquinolin-2-yl)-2-methylpent-2-en-1-one

> <PUBCHEM_IUPAC_SYSTEMATIC_NAME>
(Z)-1-(3,4-dihydro-1H-isoquinolin-2-yl)-2-methyl-pent-2-en-1-one

> <PUBCHEM_IUPAC_TRADITIONAL_NAME>
(Z)-1-(3,4-dihydro-1H-isoquinolin-2-yl)-2-methyl-pent-2-en-1-one

> <PUBCHEM_IUPAC_INCHI>
InChI=1S/C15H19NO/c1-3-6-12(2)15(17)16-10-9-13-7-4-5-8-14(13)11-16/h4-8H,3,9-11H2,1-2H3/b12-6-

> <PUBCHEM_IUPAC_INCHIKEY>
KVLLNRVPSKCVBP-SDQBBNPISA-N

> <PUBCHEM_XLOGP3>
2.9

> <PUBCHEM_EXACT_MASS>
229.146664

> <PUBCHEM_MOLECULAR_FORMULA>
C15H19NO

> <PUBCHEM_MOLECULAR_WEIGHT>
229.31746

> <PUBCHEM_OPENEYE_CAN_SMILES>
CCC=C(C)C(=O)N1CCC2=CC=CC=C2C1

> <PUBCHEM_OPENEYE_ISO_SMILES>
CC/C=C(/C)\C(=O)N1CCC2=CC=CC=C2C1

> <PUBCHEM_CACTVS_TPSA>
20.3

> <PUBCHEM_MONOISOTOPIC_WEIGHT>
229.146664

> <PUBCHEM_TOTAL_CHARGE>
0

> <PUBCHEM_HEAVY_ATOM_COUNT>
17

> <PUBCHEM_ATOM_DEF_STEREO_COUNT>
0

> <PUBCHEM_ATOM_UDEF_STEREO_COUNT>
0

> <PUBCHEM_BOND_DEF_STEREO_COUNT>
1

> <PUBCHEM_BOND_UDEF_STEREO_COUNT>
0

> <PUBCHEM_ISOTOPIC_ATOM_COUNT>
0

> <PUBCHEM_COMPONENT_COUNT>
1

> <PUBCHEM_CACTVS_TAUTO_COUNT>
1

> <PUBCHEM_COORDINATE_TYPE>
1
5
255

> <PUBCHEM_BONDANNOTATIONS>
10  13  8
12  13  8
6  7  8
6  9  8
7  10  8
9  12  8

$$$$
