65542853
  -OEChem-11301218272D

 34 36  0     0  0  0  0  0  0999 V2000
    7.5673    2.9120    0.0000 Br  0  0  0  0  0  0  0  0  0  0  0  0
    4.3211    1.3428    0.0000 O   0  0  0  0  0  0  0  0  0  0  0  0
    4.6783   -1.9615    0.0000 N   0  0  0  0  0  0  0  0  0  0  0  0
    3.7320   -0.6567    0.0000 C   0  0  0  0  0  0  0  0  0  0  0  0
    4.6783   -0.3520    0.0000 C   0  0  0  0  0  0  0  0  0  0  0  0
    3.7320   -1.6567    0.0000 C   0  0  0  0  0  0  0  0  0  0  0  0
    5.2619   -1.1567    0.0000 C   0  0  0  0  0  0  0  0  0  0  0  0
    4.9889    0.5985    0.0000 C   0  0  0  0  0  0  0  0  0  0  0  0
    5.9674    0.8047    0.0000 C   0  0  0  0  0  0  0  0  0  0  0  0
    2.8660   -0.1567    0.0000 C   0  0  0  0  0  0  0  0  0  0  0  0
    2.8660   -2.1567    0.0000 C   0  0  0  0  0  0  0  0  0  0  0  0
    4.9889   -2.9120    0.0000 C   0  0  0  0  0  0  0  0  0  0  0  0
    6.2781    1.7552    0.0000 C   0  0  0  0  0  0  0  0  0  0  0  0
    2.0000   -0.6567    0.0000 C   0  0  0  0  0  0  0  0  0  0  0  0
    2.0000   -1.6567    0.0000 C   0  0  0  0  0  0  0  0  0  0  0  0
    6.6353    0.0604    0.0000 C   0  0  0  0  0  0  0  0  0  0  0  0
    7.2566    1.9615    0.0000 C   0  0  0  0  0  0  0  0  0  0  0  0
    5.6103    2.4996    0.0000 C   0  0  0  0  0  0  0  0  0  0  0  0
    7.6138    0.2666    0.0000 C   0  0  0  0  0  0  0  0  0  0  0  0
    7.9244    1.2172    0.0000 C   0  0  0  0  0  0  0  0  0  0  0  0
    5.8819   -1.1567    0.0000 H   0  0  0  0  0  0  0  0  0  0  0  0
    2.8660    0.4633    0.0000 H   0  0  0  0  0  0  0  0  0  0  0  0
    2.8660   -2.7767    0.0000 H   0  0  0  0  0  0  0  0  0  0  0  0
    4.3996   -3.1046    0.0000 H   0  0  0  0  0  0  0  0  0  0  0  0
    5.1815   -3.5013    0.0000 H   0  0  0  0  0  0  0  0  0  0  0  0
    5.5783   -2.7194    0.0000 H   0  0  0  0  0  0  0  0  0  0  0  0
    1.4631   -0.3467    0.0000 H   0  0  0  0  0  0  0  0  0  0  0  0
    1.4631   -1.9667    0.0000 H   0  0  0  0  0  0  0  0  0  0  0  0
    6.4427   -0.5289    0.0000 H   0  0  0  0  0  0  0  0  0  0  0  0
    6.0717    2.9136    0.0000 H   0  0  0  0  0  0  0  0  0  0  0  0
    5.1962    2.9610    0.0000 H   0  0  0  0  0  0  0  0  0  0  0  0
    5.1488    2.0855    0.0000 H   0  0  0  0  0  0  0  0  0  0  0  0
    8.0279   -0.1948    0.0000 H   0  0  0  0  0  0  0  0  0  0  0  0
    8.5311    1.3450    0.0000 H   0  0  0  0  0  0  0  0  0  0  0  0
  1 17  1  0  0  0  0
  2  8  2  0  0  0  0
  3  6  1  0  0  0  0
  3  7  1  0  0  0  0
  3 12  1  0  0  0  0
  4  5  1  0  0  0  0
  4  6  1  0  0  0  0
  4 10  2  0  0  0  0
  5  7  2  0  0  0  0
  5  8  1  0  0  0  0
  6 11  2  0  0  0  0
  7 21  1  0  0  0  0
  8  9  1  0  0  0  0
  9 13  2  0  0  0  0
  9 16  1  0  0  0  0
 10 14  1  0  0  0  0
 10 22  1  0  0  0  0
 11 15  1  0  0  0  0
 11 23  1  0  0  0  0
 12 24  1  0  0  0  0
 12 25  1  0  0  0  0
 12 26  1  0  0  0  0
 13 17  1  0  0  0  0
 13 18  1  0  0  0  0
 14 15  2  0  0  0  0
 14 27  1  0  0  0  0
 15 28  1  0  0  0  0
 16 19  2  0  0  0  0
 16 29  1  0  0  0  0
 17 20  2  0  0  0  0
 18 30  1  0  0  0  0
 18 31  1  0  0  0  0
 18 32  1  0  0  0  0
 19 20  1  0  0  0  0
 19 33  1  0  0  0  0
 20 34  1  0  0  0  0
M  END
> <PUBCHEM_COMPOUND_CID>
65542853

> <PUBCHEM_COMPOUND_CANONICALIZED>
1

> <PUBCHEM_CACTVS_COMPLEXITY>
372

> <PUBCHEM_CACTVS_HBOND_ACCEPTOR>
1

> <PUBCHEM_CACTVS_HBOND_DONOR>
0

> <PUBCHEM_CACTVS_ROTATABLE_BOND>
2

> <PUBCHEM_CACTVS_SUBSKEYS>
AAADccB6IAAAEAAAAAAAAAAAAAAAAWAAAAAwYAAAAAAAAFgB9AAAHgBAAAABrAzBngQ+wPMMEACoA7R3RACCgCA1AiQI2CE4ZPgIIPrAlZGEIYhggADIy9cciMCOgAAAEAASgAAAAAAgACUAAAAAAAAAAA==

> <PUBCHEM_IUPAC_OPENEYE_NAME>
(3-bromo-2-methyl-phenyl)-(1-methylindol-3-yl)methanone

> <PUBCHEM_IUPAC_CAS_NAME>
(3-bromo-2-methylphenyl)-(1-methyl-3-indolyl)methanone

> <PUBCHEM_IUPAC_NAME>
(3-bromo-2-methylphenyl)-(1-methylindol-3-yl)methanone

> <PUBCHEM_IUPAC_SYSTEMATIC_NAME>
(3-bromanyl-2-methyl-phenyl)-(1-methylindol-3-yl)methanone

> <PUBCHEM_IUPAC_TRADITIONAL_NAME>
(3-bromo-2-methyl-phenyl)-(1-methylindol-3-yl)methanone

> <PUBCHEM_IUPAC_INCHI>
InChI=1S/C17H14BrNO/c1-11-12(7-5-8-15(11)18)17(20)14-10-19(2)16-9-4-3-6-13(14)16/h3-10H,1-2H3

> <PUBCHEM_IUPAC_INCHIKEY>
APEIYDNISBXONU-UHFFFAOYSA-N

> <PUBCHEM_XLOGP3>
4.7

> <PUBCHEM_EXACT_MASS>
327.025876

> <PUBCHEM_MOLECULAR_FORMULA>
C17H14BrNO

> <PUBCHEM_MOLECULAR_WEIGHT>
328.20316

> <PUBCHEM_OPENEYE_CAN_SMILES>
CC1=C(C=CC=C1Br)C(=O)C2=CN(C3=CC=CC=C32)C

> <PUBCHEM_OPENEYE_ISO_SMILES>
CC1=C(C=CC=C1Br)C(=O)C2=CN(C3=CC=CC=C32)C

> <PUBCHEM_CACTVS_TPSA>
22

> <PUBCHEM_MONOISOTOPIC_WEIGHT>
327.025876

> <PUBCHEM_TOTAL_CHARGE>
0

> <PUBCHEM_HEAVY_ATOM_COUNT>
20

> <PUBCHEM_ATOM_DEF_STEREO_COUNT>
0

> <PUBCHEM_ATOM_UDEF_STEREO_COUNT>
0

> <PUBCHEM_BOND_DEF_STEREO_COUNT>
0

> <PUBCHEM_BOND_UDEF_STEREO_COUNT>
0

> <PUBCHEM_ISOTOPIC_ATOM_COUNT>
0

> <PUBCHEM_COMPONENT_COUNT>
1

> <PUBCHEM_CACTVS_TAUTO_COUNT>
1

> <PUBCHEM_COORDINATE_TYPE>
1
5
255

> <PUBCHEM_BONDANNOTATIONS>
10  14  8
11  15  8
13  17  8
14  15  8
16  19  8
17  20  8
19  20  8
3  6  8
3  7  8
4  10  8
4  5  8
4  6  8
5  7  8
6  11  8
9  13  8
9  16  8

$$$$
65543091
  -OEChem-11301218272D

 32 33  0     0  0  0  0  0  0999 V2000
    2.0000   -3.7500    0.0000 Br  0  0  0  0  0  0  0  0  0  0  0  0
    4.5981    3.7500    0.0000 Br  0  0  0  0  0  0  0  0  0  0  0  0
    2.8660   -0.2500    0.0000 O   0  0  0  0  0  0  0  0  0  0  0  0
    4.5981   -0.2500    0.0000 N   0  0  0  0  0  0  0  0  0  0  0  0
    4.5981    0.7500    0.0000 C   0  0  0  0  0  0  0  0  0  0  0  0
    3.7320   -1.7500    0.0000 C   0  0  0  0  0  0  0  0  0  0  0  0
    5.4641    1.2500    0.0000 C   0  0  0  0  0  0  0  0  0  0  0  0
    2.8660   -2.2500    0.0000 C   0  0  0  0  0  0  0  0  0  0  0  0
    3.7320   -0.7500    0.0000 C   0  0  0  0  0  0  0  0  0  0  0  0
    3.7320    1.2500    0.0000 C   0  0  0  0  0  0  0  0  0  0  0  0
    4.5981   -2.2500    0.0000 C   0  0  0  0  0  0  0  0  0  0  0  0
    5.4641    2.2500    0.0000 C   0  0  0  0  0  0  0  0  0  0  0  0
    2.8660   -3.2500    0.0000 C   0  0  0  0  0  0  0  0  0  0  0  0
    6.3301    0.7500    0.0000 C   0  0  0  0  0  0  0  0  0  0  0  0
    2.0000   -1.7500    0.0000 C   0  0  0  0  0  0  0  0  0  0  0  0
    3.7320    2.2500    0.0000 C   0  0  0  0  0  0  0  0  0  0  0  0
    4.5981   -3.2500    0.0000 C   0  0  0  0  0  0  0  0  0  0  0  0
    4.5981    2.7500    0.0000 C   0  0  0  0  0  0  0  0  0  0  0  0
    3.7320   -3.7500    0.0000 C   0  0  0  0  0  0  0  0  0  0  0  0
    5.1350   -0.5600    0.0000 H   0  0  0  0  0  0  0  0  0  0  0  0
    3.1951    0.9400    0.0000 H   0  0  0  0  0  0  0  0  0  0  0  0
    5.1350   -1.9400    0.0000 H   0  0  0  0  0  0  0  0  0  0  0  0
    6.0010    2.5600    0.0000 H   0  0  0  0  0  0  0  0  0  0  0  0
    6.0201    0.2131    0.0000 H   0  0  0  0  0  0  0  0  0  0  0  0
    6.8671    0.4400    0.0000 H   0  0  0  0  0  0  0  0  0  0  0  0
    6.6401    1.2869    0.0000 H   0  0  0  0  0  0  0  0  0  0  0  0
    2.3100   -1.2131    0.0000 H   0  0  0  0  0  0  0  0  0  0  0  0
    1.4631   -1.4400    0.0000 H   0  0  0  0  0  0  0  0  0  0  0  0
    1.6900   -2.2869    0.0000 H   0  0  0  0  0  0  0  0  0  0  0  0
    3.1951    2.5600    0.0000 H   0  0  0  0  0  0  0  0  0  0  0  0
    5.1350   -3.5600    0.0000 H   0  0  0  0  0  0  0  0  0  0  0  0
    3.7320   -4.3700    0.0000 H   0  0  0  0  0  0  0  0  0  0  0  0
  1 13  1  0  0  0  0
  2 18  1  0  0  0  0
  3  9  2  0  0  0  0
  4  5  1  0  0  0  0
  4  9  1  0  0  0  0
  4 20  1  0  0  0  0
  5  7  2  0  0  0  0
  5 10  1  0  0  0  0
  6  8  2  0  0  0  0
  6  9  1  0  0  0  0
  6 11  1  0  0  0  0
  7 12  1  0  0  0  0
  7 14  1  0  0  0  0
  8 13  1  0  0  0  0
  8 15  1  0  0  0  0
 10 16  2  0  0  0  0
 10 21  1  0  0  0  0
 11 17  2  0  0  0  0
 11 22  1  0  0  0  0
 12 18  2  0  0  0  0
 12 23  1  0  0  0  0
 13 19  2  0  0  0  0
 14 24  1  0  0  0  0
 14 25  1  0  0  0  0
 14 26  1  0  0  0  0
 15 27  1  0  0  0  0
 15 28  1  0  0  0  0
 15 29  1  0  0  0  0
 16 18  1  0  0  0  0
 16 30  1  0  0  0  0
 17 19  1  0  0  0  0
 17 31  1  0  0  0  0
 19 32  1  0  0  0  0
M  END
> <PUBCHEM_COMPOUND_CID>
65543091

> <PUBCHEM_COMPOUND_CANONICALIZED>
1

> <PUBCHEM_CACTVS_COMPLEXITY>
323

> <PUBCHEM_CACTVS_HBOND_ACCEPTOR>
1

> <PUBCHEM_CACTVS_HBOND_DONOR>
1

> <PUBCHEM_CACTVS_ROTATABLE_BOND>
2

> <PUBCHEM_CACTVS_SUBSKEYS>
AAADccByIAAAGAAAAAAAAAAAAAAAAAAAAAAwYAAAAAAAAAABQAAAHgBQAAABrAiBmAAywILAAACIAiVSUACCAAAlAgQIiAEAZOgIIDLAlZGEIQhglADIy5cYiICOgAAgEAASgAAAAEAgACUAAAAAAAAAAA==

> <PUBCHEM_IUPAC_OPENEYE_NAME>
3-bromo-N-(4-bromo-2-methyl-phenyl)-2-methyl-benzamide

> <PUBCHEM_IUPAC_CAS_NAME>
3-bromo-N-(4-bromo-2-methylphenyl)-2-methylbenzamide

> <PUBCHEM_IUPAC_NAME>
3-bromo-N-(4-bromo-2-methylphenyl)-2-methylbenzamide

> <PUBCHEM_IUPAC_SYSTEMATIC_NAME>
3-bromanyl-N-(4-bromanyl-2-methyl-phenyl)-2-methyl-benzamide

> <PUBCHEM_IUPAC_TRADITIONAL_NAME>
3-bromo-N-(4-bromo-2-methyl-phenyl)-2-methyl-benzamide

> <PUBCHEM_IUPAC_INCHI>
InChI=1S/C15H13Br2NO/c1-9-8-11(16)6-7-14(9)18-15(19)12-4-3-5-13(17)10(12)2/h3-8H,1-2H3,(H,18,19)

> <PUBCHEM_IUPAC_INCHIKEY>
FGEFELPKSOZERK-UHFFFAOYSA-N

> <PUBCHEM_XLOGP3>
4.7

> <PUBCHEM_EXACT_MASS>
382.934342

> <PUBCHEM_MOLECULAR_FORMULA>
C15H13Br2NO

> <PUBCHEM_MOLECULAR_WEIGHT>
383.07782

> <PUBCHEM_OPENEYE_CAN_SMILES>
CC1=C(C=CC(=C1)Br)NC(=O)C2=C(C(=CC=C2)Br)C

> <PUBCHEM_OPENEYE_ISO_SMILES>
CC1=C(C=CC(=C1)Br)NC(=O)C2=C(C(=CC=C2)Br)C

> <PUBCHEM_CACTVS_TPSA>
29.1

> <PUBCHEM_MONOISOTOPIC_WEIGHT>
380.936388

> <PUBCHEM_TOTAL_CHARGE>
0

> <PUBCHEM_HEAVY_ATOM_COUNT>
19

> <PUBCHEM_ATOM_DEF_STEREO_COUNT>
0

> <PUBCHEM_ATOM_UDEF_STEREO_COUNT>
0

> <PUBCHEM_BOND_DEF_STEREO_COUNT>
0

> <PUBCHEM_BOND_UDEF_STEREO_COUNT>
0

> <PUBCHEM_ISOTOPIC_ATOM_COUNT>
0

> <PUBCHEM_COMPONENT_COUNT>
1

> <PUBCHEM_CACTVS_TAUTO_COUNT>
2

> <PUBCHEM_COORDINATE_TYPE>
1
5
255

> <PUBCHEM_BONDANNOTATIONS>
10  16  8
11  17  8
12  18  8
13  19  8
16  18  8
17  19  8
5  10  8
5  7  8
6  11  8
6  8  8
7  12  8
8  13  8

$$$$
65544180
  -OEChem-11301218272D

 31 33  0     0  0  0  0  0  0999 V2000
    7.5673    2.7314    0.0000 Br  0  0  0  0  0  0  0  0  0  0  0  0
    4.3211    1.1622    0.0000 O   0  0  0  0  0  0  0  0  0  0  0  0
    4.6783   -2.1421    0.0000 N   0  0  0  0  0  0  0  0  0  0  0  0
    3.7320   -0.8373    0.0000 C   0  0  0  0  0  0  0  0  0  0  0  0
    4.6783   -0.5326    0.0000 C   0  0  0  0  0  0  0  0  0  0  0  0
    3.7320   -1.8373    0.0000 C   0  0  0  0  0  0  0  0  0  0  0  0
    4.9889    0.4179    0.0000 C   0  0  0  0  0  0  0  0  0  0  0  0
    5.9674    0.6241    0.0000 C   0  0  0  0  0  0  0  0  0  0  0  0
    5.2619   -1.3373    0.0000 C   0  0  0  0  0  0  0  0  0  0  0  0
    6.2781    1.5747    0.0000 C   0  0  0  0  0  0  0  0  0  0  0  0
    2.8660   -0.3373    0.0000 C   0  0  0  0  0  0  0  0  0  0  0  0
    2.8660   -2.3373    0.0000 C   0  0  0  0  0  0  0  0  0  0  0  0
    6.6353   -0.1202    0.0000 C   0  0  0  0  0  0  0  0  0  0  0  0
    2.0000   -0.8373    0.0000 C   0  0  0  0  0  0  0  0  0  0  0  0
    2.0000   -1.8373    0.0000 C   0  0  0  0  0  0  0  0  0  0  0  0
    7.2566    1.7809    0.0000 C   0  0  0  0  0  0  0  0  0  0  0  0
    5.6103    2.3190    0.0000 C   0  0  0  0  0  0  0  0  0  0  0  0
    7.6138    0.0861    0.0000 C   0  0  0  0  0  0  0  0  0  0  0  0
    7.9244    1.0366    0.0000 C   0  0  0  0  0  0  0  0  0  0  0  0
    5.8819   -1.3373    0.0000 H   0  0  0  0  0  0  0  0  0  0  0  0
    4.8709   -2.7314    0.0000 H   0  0  0  0  0  0  0  0  0  0  0  0
    2.8660    0.2827    0.0000 H   0  0  0  0  0  0  0  0  0  0  0  0
    2.8660   -2.9573    0.0000 H   0  0  0  0  0  0  0  0  0  0  0  0
    6.4427   -0.7095    0.0000 H   0  0  0  0  0  0  0  0  0  0  0  0
    1.4631   -0.5273    0.0000 H   0  0  0  0  0  0  0  0  0  0  0  0
    1.4631   -2.1473    0.0000 H   0  0  0  0  0  0  0  0  0  0  0  0
    6.0717    2.7330    0.0000 H   0  0  0  0  0  0  0  0  0  0  0  0
    5.1962    2.7804    0.0000 H   0  0  0  0  0  0  0  0  0  0  0  0
    5.1488    1.9049    0.0000 H   0  0  0  0  0  0  0  0  0  0  0  0
    8.0279   -0.3754    0.0000 H   0  0  0  0  0  0  0  0  0  0  0  0
    8.5311    1.1644    0.0000 H   0  0  0  0  0  0  0  0  0  0  0  0
  1 16  1  0  0  0  0
  2  7  2  0  0  0  0
  3  6  1  0  0  0  0
  3  9  1  0  0  0  0
  3 21  1  0  0  0  0
  4  5  1  0  0  0  0
  4  6  1  0  0  0  0
  4 11  2  0  0  0  0
  5  7  1  0  0  0  0
  5  9  2  0  0  0  0
  6 12  2  0  0  0  0
  7  8  1  0  0  0  0
  8 10  2  0  0  0  0
  8 13  1  0  0  0  0
  9 20  1  0  0  0  0
 10 16  1  0  0  0  0
 10 17  1  0  0  0  0
 11 14  1  0  0  0  0
 11 22  1  0  0  0  0
 12 15  1  0  0  0  0
 12 23  1  0  0  0  0
 13 18  2  0  0  0  0
 13 24  1  0  0  0  0
 14 15  2  0  0  0  0
 14 25  1  0  0  0  0
 15 26  1  0  0  0  0
 16 19  2  0  0  0  0
 17 27  1  0  0  0  0
 17 28  1  0  0  0  0
 17 29  1  0  0  0  0
 18 19  1  0  0  0  0
 18 30  1  0  0  0  0
 19 31  1  0  0  0  0
M  END
> <PUBCHEM_COMPOUND_CID>
65544180

> <PUBCHEM_COMPOUND_CANONICALIZED>
1

> <PUBCHEM_CACTVS_COMPLEXITY>
346

> <PUBCHEM_CACTVS_HBOND_ACCEPTOR>
1

> <PUBCHEM_CACTVS_HBOND_DONOR>
1

> <PUBCHEM_CACTVS_ROTATABLE_BOND>
2

> <PUBCHEM_CACTVS_SUBSKEYS>
AAADccB6IAAAEAAAAAAAAAAAAAAAAWAAAAAwYAAAAAAAAFgB9AAAHgBQAAABrAzBngQ+wPLJkACoA7R3RACCgCA1AiQI2aE4ZPgIIPrAlZGEIYhgkADIy9cciMCOgAAAEAASgAAAAAAgACUAAAAAAAAAAA==

> <PUBCHEM_IUPAC_OPENEYE_NAME>
(3-bromo-2-methyl-phenyl)-(1H-indol-3-yl)methanone

> <PUBCHEM_IUPAC_CAS_NAME>
(3-bromo-2-methylphenyl)-(1H-indol-3-yl)methanone

> <PUBCHEM_IUPAC_NAME>
(3-bromo-2-methylphenyl)-(1H-indol-3-yl)methanone

> <PUBCHEM_IUPAC_SYSTEMATIC_NAME>
(3-bromanyl-2-methyl-phenyl)-(1H-indol-3-yl)methanone

> <PUBCHEM_IUPAC_TRADITIONAL_NAME>
(3-bromo-2-methyl-phenyl)-(1H-indol-3-yl)methanone

> <PUBCHEM_IUPAC_INCHI>
InChI=1S/C16H12BrNO/c1-10-11(6-4-7-14(10)17)16(19)13-9-18-15-8-3-2-5-12(13)15/h2-9,18H,1H3

> <PUBCHEM_IUPAC_INCHIKEY>
ZGZSXEOPWFKWDO-UHFFFAOYSA-N

> <PUBCHEM_XLOGP3>
4.8

> <PUBCHEM_EXACT_MASS>
313.010226

> <PUBCHEM_MOLECULAR_FORMULA>
C16H12BrNO

> <PUBCHEM_MOLECULAR_WEIGHT>
314.17658

> <PUBCHEM_OPENEYE_CAN_SMILES>
CC1=C(C=CC=C1Br)C(=O)C2=CNC3=CC=CC=C32

> <PUBCHEM_OPENEYE_ISO_SMILES>
CC1=C(C=CC=C1Br)C(=O)C2=CNC3=CC=CC=C32

> <PUBCHEM_CACTVS_TPSA>
32.9

> <PUBCHEM_MONOISOTOPIC_WEIGHT>
313.010226

> <PUBCHEM_TOTAL_CHARGE>
0

> <PUBCHEM_HEAVY_ATOM_COUNT>
19

> <PUBCHEM_ATOM_DEF_STEREO_COUNT>
0

> <PUBCHEM_ATOM_UDEF_STEREO_COUNT>
0

> <PUBCHEM_BOND_DEF_STEREO_COUNT>
0

> <PUBCHEM_BOND_UDEF_STEREO_COUNT>
0

> <PUBCHEM_ISOTOPIC_ATOM_COUNT>
0

> <PUBCHEM_COMPONENT_COUNT>
1

> <PUBCHEM_CACTVS_TAUTO_COUNT>
11

> <PUBCHEM_COORDINATE_TYPE>
1
5
255

> <PUBCHEM_BONDANNOTATIONS>
10  16  8
11  14  8
12  15  8
13  18  8
14  15  8
16  19  8
18  19  8
3  6  8
3  9  8
4  11  8
4  5  8
4  6  8
5  9  8
6  12  8
8  10  8
8  13  8

$$$$
65545017
  -OEChem-11301218272D

 28 30  0     0  0  0  0  0  0999 V2000
    8.2619   -1.5630    0.0000 Br  0  0  0  0  0  0  0  0  0  0  0  0
    4.6783    0.9737    0.0000 N   0  0  0  0  0  0  0  0  0  0  0  0
    4.6783   -0.6357    0.0000 N   0  0  0  0  0  0  0  0  0  0  0  0
    5.2619    0.1690    0.0000 C   0  0  0  0  0  0  0  0  0  0  0  0
    6.2619    0.1690    0.0000 C   0  0  0  0  0  0  0  0  0  0  0  0
    3.7320    0.6690    0.0000 C   0  0  0  0  0  0  0  0  0  0  0  0
    3.7320   -0.3310    0.0000 C   0  0  0  0  0  0  0  0  0  0  0  0
    6.7619   -0.6970    0.0000 C   0  0  0  0  0  0  0  0  0  0  0  0
    6.7619    1.0350    0.0000 C   0  0  0  0  0  0  0  0  0  0  0  0
    2.8660    1.1690    0.0000 C   0  0  0  0  0  0  0  0  0  0  0  0
    2.8660   -0.8310    0.0000 C   0  0  0  0  0  0  0  0  0  0  0  0
    7.7619   -0.6970    0.0000 C   0  0  0  0  0  0  0  0  0  0  0  0
    6.2619   -1.5630    0.0000 C   0  0  0  0  0  0  0  0  0  0  0  0
    7.7619    1.0350    0.0000 C   0  0  0  0  0  0  0  0  0  0  0  0
    8.2619    0.1690    0.0000 C   0  0  0  0  0  0  0  0  0  0  0  0
    2.0000    0.6690    0.0000 C   0  0  0  0  0  0  0  0  0  0  0  0
    2.0000   -0.3310    0.0000 C   0  0  0  0  0  0  0  0  0  0  0  0
    4.8709    1.5630    0.0000 H   0  0  0  0  0  0  0  0  0  0  0  0
    6.4519    1.5720    0.0000 H   0  0  0  0  0  0  0  0  0  0  0  0
    2.8660    1.7890    0.0000 H   0  0  0  0  0  0  0  0  0  0  0  0
    2.8660   -1.4510    0.0000 H   0  0  0  0  0  0  0  0  0  0  0  0
    5.7249   -1.2530    0.0000 H   0  0  0  0  0  0  0  0  0  0  0  0
    5.9519   -2.1000    0.0000 H   0  0  0  0  0  0  0  0  0  0  0  0
    6.7988   -1.8730    0.0000 H   0  0  0  0  0  0  0  0  0  0  0  0
    8.0719    1.5720    0.0000 H   0  0  0  0  0  0  0  0  0  0  0  0
    8.8819    0.1690    0.0000 H   0  0  0  0  0  0  0  0  0  0  0  0
    1.4631    0.9790    0.0000 H   0  0  0  0  0  0  0  0  0  0  0  0
    1.4631   -0.6410    0.0000 H   0  0  0  0  0  0  0  0  0  0  0  0
  1 12  1  0  0  0  0
  2  4  1  0  0  0  0
  2  6  1  0  0  0  0
  2 18  1  0  0  0  0
  3  4  2  0  0  0  0
  3  7  1  0  0  0  0
  4  5  1  0  0  0  0
  5  8  2  0  0  0  0
  5  9  1  0  0  0  0
  6  7  1  0  0  0  0
  6 10  2  0  0  0  0
  7 11  2  0  0  0  0
  8 12  1  0  0  0  0
  8 13  1  0  0  0  0
  9 14  2  0  0  0  0
  9 19  1  0  0  0  0
 10 16  1  0  0  0  0
 10 20  1  0  0  0  0
 11 17  1  0  0  0  0
 11 21  1  0  0  0  0
 12 15  2  0  0  0  0
 13 22  1  0  0  0  0
 13 23  1  0  0  0  0
 13 24  1  0  0  0  0
 14 15  1  0  0  0  0
 14 25  1  0  0  0  0
 15 26  1  0  0  0  0
 16 17  2  0  0  0  0
 16 27  1  0  0  0  0
 17 28  1  0  0  0  0
M  END
> <PUBCHEM_COMPOUND_CID>
65545017

> <PUBCHEM_COMPOUND_CANONICALIZED>
1

> <PUBCHEM_CACTVS_COMPLEXITY>
271

> <PUBCHEM_CACTVS_HBOND_ACCEPTOR>
1

> <PUBCHEM_CACTVS_HBOND_DONOR>
1

> <PUBCHEM_CACTVS_ROTATABLE_BOND>
1

> <PUBCHEM_CACTVS_SUBSKEYS>
AAADccBzAAAAEAAAAAAAAAAAAAAAAWAAAAAwYAAAAAAAAFgB9AAAHABQAAABrAiBHwAz0LbJkACgAyZiZACCgC2hEqQJmSAwdLiIaKLAmZGUIAhokALIyjcQgIAOgAAAEAAQgCAAAAAgACEAQAAAAAAAAA==

> <PUBCHEM_IUPAC_OPENEYE_NAME>
2-(3-bromo-2-methyl-phenyl)-1H-benzimidazole

> <PUBCHEM_IUPAC_CAS_NAME>
2-(3-bromo-2-methylphenyl)-1H-benzimidazole

> <PUBCHEM_IUPAC_NAME>
2-(3-bromo-2-methylphenyl)-1H-benzimidazole

> <PUBCHEM_IUPAC_SYSTEMATIC_NAME>
2-(3-bromanyl-2-methyl-phenyl)-1H-benzimidazole

> <PUBCHEM_IUPAC_TRADITIONAL_NAME>
2-(3-bromo-2-methyl-phenyl)-1H-benzimidazole

> <PUBCHEM_IUPAC_INCHI>
InChI=1S/C14H11BrN2/c1-9-10(5-4-6-11(9)15)14-16-12-7-2-3-8-13(12)17-14/h2-8H,1H3,(H,16,17)

> <PUBCHEM_IUPAC_INCHIKEY>
IWAGYIRONGQWDR-UHFFFAOYSA-N

> <PUBCHEM_XLOGP3>
4.3

> <PUBCHEM_EXACT_MASS>
286.01056

> <PUBCHEM_MOLECULAR_FORMULA>
C14H11BrN2

> <PUBCHEM_MOLECULAR_WEIGHT>
287.15454

> <PUBCHEM_OPENEYE_CAN_SMILES>
CC1=C(C=CC=C1Br)C2=NC3=CC=CC=C3N2

> <PUBCHEM_OPENEYE_ISO_SMILES>
CC1=C(C=CC=C1Br)C2=NC3=CC=CC=C3N2

> <PUBCHEM_CACTVS_TPSA>
28.7

> <PUBCHEM_MONOISOTOPIC_WEIGHT>
286.01056

> <PUBCHEM_TOTAL_CHARGE>
0

> <PUBCHEM_HEAVY_ATOM_COUNT>
17

> <PUBCHEM_ATOM_DEF_STEREO_COUNT>
0

> <PUBCHEM_ATOM_UDEF_STEREO_COUNT>
0

> <PUBCHEM_BOND_DEF_STEREO_COUNT>
0

> <PUBCHEM_BOND_UDEF_STEREO_COUNT>
0

> <PUBCHEM_ISOTOPIC_ATOM_COUNT>
0

> <PUBCHEM_COMPONENT_COUNT>
1

> <PUBCHEM_CACTVS_TAUTO_COUNT>
1

> <PUBCHEM_COORDINATE_TYPE>
1
5
255

> <PUBCHEM_BONDANNOTATIONS>
10  16  8
11  17  8
12  15  8
14  15  8
16  17  8
2  4  8
2  6  8
3  4  8
3  7  8
5  8  8
5  9  8
6  10  8
6  7  8
7  11  8
8  12  8
9  14  8

$$$$
