64161481
  -OEChem-11301218242D

 45 47  0     1  0  0  0  0  0999 V2000
    5.6103    2.0993    0.0000 O   0  0  0  0  0  0  0  0  0  0  0  0
    7.2566    1.5612    0.0000 N   0  0  0  0  0  0  0  0  0  0  0  0
    4.6783   -2.3617    0.0000 N   0  0  0  0  0  0  0  0  0  0  0  0
    7.8670    0.7691    0.0000 C   0  0  3  0  0  0  0  0  0  0  0  0
    8.8668    0.7524    0.0000 C   0  0  0  0  0  0  0  0  0  0  0  0
    9.5033    1.5237    0.0000 C   0  0  0  0  0  0  0  0  0  0  0  0
    7.4954    2.5323    0.0000 C   0  0  0  0  0  0  0  0  0  0  0  0
    9.2971    2.5022    0.0000 C   0  0  0  0  0  0  0  0  0  0  0  0
    8.4034    2.9511    0.0000 C   0  0  0  0  0  0  0  0  0  0  0  0
    7.4181   -0.1245    0.0000 C   0  0  0  0  0  0  0  0  0  0  0  0
    6.2781    1.3550    0.0000 C   0  0  0  0  0  0  0  0  0  0  0  0
    5.9674    0.4045    0.0000 C   0  0  0  0  0  0  0  0  0  0  0  0
    4.9889    0.1982    0.0000 C   0  0  0  0  0  0  0  0  0  0  0  0
    4.6783   -0.7523    0.0000 C   0  0  0  0  0  0  0  0  0  0  0  0
    3.7320   -1.0570    0.0000 C   0  0  0  0  0  0  0  0  0  0  0  0
    3.7320   -2.0570    0.0000 C   0  0  0  0  0  0  0  0  0  0  0  0
    5.2619   -1.5570    0.0000 C   0  0  0  0  0  0  0  0  0  0  0  0
    2.8660   -0.5570    0.0000 C   0  0  0  0  0  0  0  0  0  0  0  0
    2.8660   -2.5570    0.0000 C   0  0  0  0  0  0  0  0  0  0  0  0
    2.0000   -1.0570    0.0000 C   0  0  0  0  0  0  0  0  0  0  0  0
    2.0000   -2.0570    0.0000 C   0  0  0  0  0  0  0  0  0  0  0  0
    7.2498    0.7099    0.0000 H   0  0  0  0  0  0  0  0  0  0  0  0
    8.7188    0.1503    0.0000 H   0  0  0  0  0  0  0  0  0  0  0  0
    9.4209    0.4741    0.0000 H   0  0  0  0  0  0  0  0  0  0  0  0
    9.8817    1.0326    0.0000 H   0  0  0  0  0  0  0  0  0  0  0  0
   10.0663    1.7834    0.0000 H   0  0  0  0  0  0  0  0  0  0  0  0
    7.3675    3.1390    0.0000 H   0  0  0  0  0  0  0  0  0  0  0  0
    6.8754    2.5426    0.0000 H   0  0  0  0  0  0  0  0  0  0  0  0
    9.9170    2.4919    0.0000 H   0  0  0  0  0  0  0  0  0  0  0  0
    9.4451    3.1043    0.0000 H   0  0  0  0  0  0  0  0  0  0  0  0
    8.7980    3.4293    0.0000 H   0  0  0  0  0  0  0  0  0  0  0  0
    8.0250    3.4422    0.0000 H   0  0  0  0  0  0  0  0  0  0  0  0
    6.8641    0.1538    0.0000 H   0  0  0  0  0  0  0  0  0  0  0  0
    7.1398   -0.6786    0.0000 H   0  0  0  0  0  0  0  0  0  0  0  0
    7.9721   -0.4028    0.0000 H   0  0  0  0  0  0  0  0  0  0  0  0
    5.9880   -0.2152    0.0000 H   0  0  0  0  0  0  0  0  0  0  0  0
    6.5812    0.3171    0.0000 H   0  0  0  0  0  0  0  0  0  0  0  0
    4.9684    0.8179    0.0000 H   0  0  0  0  0  0  0  0  0  0  0  0
    4.3751    0.2856    0.0000 H   0  0  0  0  0  0  0  0  0  0  0  0
    5.8819   -1.5570    0.0000 H   0  0  0  0  0  0  0  0  0  0  0  0
    4.8709   -2.9511    0.0000 H   0  0  0  0  0  0  0  0  0  0  0  0
    2.8660    0.0630    0.0000 H   0  0  0  0  0  0  0  0  0  0  0  0
    2.8660   -3.1770    0.0000 H   0  0  0  0  0  0  0  0  0  0  0  0
    1.4631   -0.7470    0.0000 H   0  0  0  0  0  0  0  0  0  0  0  0
    1.4631   -2.3670    0.0000 H   0  0  0  0  0  0  0  0  0  0  0  0
  1 11  2  0  0  0  0
  2  4  1  0  0  0  0
  2  7  1  0  0  0  0
  2 11  1  0  0  0  0
  3 16  1  0  0  0  0
  3 17  1  0  0  0  0
  3 41  1  0  0  0  0
  4  5  1  0  0  0  0
  4 10  1  0  0  0  0
  4 22  1  0  0  0  0
  5  6  1  0  0  0  0
  5 23  1  0  0  0  0
  5 24  1  0  0  0  0
  6  8  1  0  0  0  0
  6 25  1  0  0  0  0
  6 26  1  0  0  0  0
  7  9  1  0  0  0  0
  7 27  1  0  0  0  0
  7 28  1  0  0  0  0
  8  9  1  0  0  0  0
  8 29  1  0  0  0  0
  8 30  1  0  0  0  0
  9 31  1  0  0  0  0
  9 32  1  0  0  0  0
 10 33  1  0  0  0  0
 10 34  1  0  0  0  0
 10 35  1  0  0  0  0
 11 12  1  0  0  0  0
 12 13  1  0  0  0  0
 12 36  1  0  0  0  0
 12 37  1  0  0  0  0
 13 14  1  0  0  0  0
 13 38  1  0  0  0  0
 13 39  1  0  0  0  0
 14 15  1  0  0  0  0
 14 17  2  0  0  0  0
 15 16  1  0  0  0  0
 15 18  2  0  0  0  0
 16 19  2  0  0  0  0
 17 40  1  0  0  0  0
 18 20  1  0  0  0  0
 18 42  1  0  0  0  0
 19 21  1  0  0  0  0
 19 43  1  0  0  0  0
 20 21  2  0  0  0  0
 20 44  1  0  0  0  0
 21 45  1  0  0  0  0
M  END
> <PUBCHEM_COMPOUND_CID>
64161481

> <PUBCHEM_COMPOUND_CANONICALIZED>
1

> <PUBCHEM_CACTVS_COMPLEXITY>
357

> <PUBCHEM_CACTVS_HBOND_ACCEPTOR>
1

> <PUBCHEM_CACTVS_HBOND_DONOR>
1

> <PUBCHEM_CACTVS_ROTATABLE_BOND>
3

> <PUBCHEM_CACTVS_SUBSKEYS>
AAADceB7IAAAAAAAAAAAAAAAAAAAAWAAAAAwAAAABYAAAFgB8AAAHgAQAAAADCjBngQ+wPPJkACoAzV3VACCgCAxAiAI2aE4ZJgIIPLAkZGEIAhglgDIyAcYicCOgAAAAAACAAAAAAAAAAQAAAAAAAAAAA==

> <PUBCHEM_IUPAC_OPENEYE_NAME>
3-(1H-indol-3-yl)-1-(2-methylazepan-1-yl)propan-1-one

> <PUBCHEM_IUPAC_CAS_NAME>
3-(1H-indol-3-yl)-1-(2-methyl-1-azepanyl)-1-propanone

> <PUBCHEM_IUPAC_NAME>
3-(1H-indol-3-yl)-1-(2-methylazepan-1-yl)propan-1-one

> <PUBCHEM_IUPAC_SYSTEMATIC_NAME>
3-(1H-indol-3-yl)-1-(2-methylazepan-1-yl)propan-1-one

> <PUBCHEM_IUPAC_TRADITIONAL_NAME>
3-(1H-indol-3-yl)-1-(2-methylazepan-1-yl)propan-1-one

> <PUBCHEM_IUPAC_INCHI>
InChI=1S/C18H24N2O/c1-14-7-3-2-6-12-20(14)18(21)11-10-15-13-19-17-9-5-4-8-16(15)17/h4-5,8-9,13-14,19H,2-3,6-7,10-12H2,1H3

> <PUBCHEM_IUPAC_INCHIKEY>
HNGPZMPPMMAYNQ-UHFFFAOYSA-N

> <PUBCHEM_XLOGP3>
3.3

> <PUBCHEM_EXACT_MASS>
284.188863

> <PUBCHEM_MOLECULAR_FORMULA>
C18H24N2O

> <PUBCHEM_MOLECULAR_WEIGHT>
284.39596

> <PUBCHEM_OPENEYE_CAN_SMILES>
CC1CCCCCN1C(=O)CCC2=CNC3=CC=CC=C32

> <PUBCHEM_OPENEYE_ISO_SMILES>
CC1CCCCCN1C(=O)CCC2=CNC3=CC=CC=C32

> <PUBCHEM_CACTVS_TPSA>
36.1

> <PUBCHEM_MONOISOTOPIC_WEIGHT>
284.188863

> <PUBCHEM_TOTAL_CHARGE>
0

> <PUBCHEM_HEAVY_ATOM_COUNT>
21

> <PUBCHEM_ATOM_DEF_STEREO_COUNT>
0

> <PUBCHEM_ATOM_UDEF_STEREO_COUNT>
1

> <PUBCHEM_BOND_DEF_STEREO_COUNT>
0

> <PUBCHEM_BOND_UDEF_STEREO_COUNT>
0

> <PUBCHEM_ISOTOPIC_ATOM_COUNT>
0

> <PUBCHEM_COMPONENT_COUNT>
1

> <PUBCHEM_CACTVS_TAUTO_COUNT>
1

> <PUBCHEM_COORDINATE_TYPE>
1
5
255

> <PUBCHEM_BONDANNOTATIONS>
14  15  8
14  17  8
15  16  8
15  18  8
16  19  8
18  20  8
19  21  8
20  21  8
3  16  8
3  17  8
4  10  3

$$$$
64162505
  -OEChem-11301218242D

 42 44  0     1  0  0  0  0  0999 V2000
    6.6353   -0.6606    0.0000 O   0  0  0  0  0  0  0  0  0  0  0  0
    6.2781    1.0342    0.0000 N   0  0  0  0  0  0  0  0  0  0  0  0
    4.6783   -2.6825    0.0000 N   0  0  0  0  0  0  0  0  0  0  0  0
    7.2693    1.1668    0.0000 C   0  0  3  0  0  0  0  0  0  0  0  0
    7.7837    2.0243    0.0000 C   0  0  0  0  0  0  0  0  0  0  0  0
    7.4339    2.9612    0.0000 C   0  0  0  0  0  0  0  0  0  0  0  0
    5.5565    1.7265    0.0000 C   0  0  0  0  0  0  0  0  0  0  0  0
    6.4834    3.2718    0.0000 C   0  0  0  0  0  0  0  0  0  0  0  0
    5.6479    2.7224    0.0000 C   0  0  0  0  0  0  0  0  0  0  0  0
    7.8187    0.3312    0.0000 C   0  0  0  0  0  0  0  0  0  0  0  0
    5.9674    0.0837    0.0000 C   0  0  0  0  0  0  0  0  0  0  0  0
    4.9889   -0.1225    0.0000 C   0  0  0  0  0  0  0  0  0  0  0  0
    4.6783   -1.0730    0.0000 C   0  0  0  0  0  0  0  0  0  0  0  0
    3.7320   -1.3778    0.0000 C   0  0  0  0  0  0  0  0  0  0  0  0
    5.2619   -1.8778    0.0000 C   0  0  0  0  0  0  0  0  0  0  0  0
    3.7320   -2.3778    0.0000 C   0  0  0  0  0  0  0  0  0  0  0  0
    2.8660   -0.8778    0.0000 C   0  0  0  0  0  0  0  0  0  0  0  0
    2.8660   -2.8778    0.0000 C   0  0  0  0  0  0  0  0  0  0  0  0
    2.0000   -1.3778    0.0000 C   0  0  0  0  0  0  0  0  0  0  0  0
    2.0000   -2.3778    0.0000 C   0  0  0  0  0  0  0  0  0  0  0  0
    7.0119    0.6027    0.0000 H   0  0  0  0  0  0  0  0  0  0  0  0
    8.2311    1.5951    0.0000 H   0  0  0  0  0  0  0  0  0  0  0  0
    8.3017    2.3650    0.0000 H   0  0  0  0  0  0  0  0  0  0  0  0
    8.0484    3.0433    0.0000 H   0  0  0  0  0  0  0  0  0  0  0  0
    7.4906    3.5786    0.0000 H   0  0  0  0  0  0  0  0  0  0  0  0
    4.9672    1.9192    0.0000 H   0  0  0  0  0  0  0  0  0  0  0  0
    5.2376    1.1949    0.0000 H   0  0  0  0  0  0  0  0  0  0  0  0
    6.8023    3.8035    0.0000 H   0  0  0  0  0  0  0  0  0  0  0  0
    6.0360    3.7010    0.0000 H   0  0  0  0  0  0  0  0  0  0  0  0
    5.4310    3.3032    0.0000 H   0  0  0  0  0  0  0  0  0  0  0  0
    5.0333    2.6402    0.0000 H   0  0  0  0  0  0  0  0  0  0  0  0
    7.3007   -0.0094    0.0000 H   0  0  0  0  0  0  0  0  0  0  0  0
    8.1594   -0.1868    0.0000 H   0  0  0  0  0  0  0  0  0  0  0  0
    8.3368    0.6719    0.0000 H   0  0  0  0  0  0  0  0  0  0  0  0
    4.9684    0.4972    0.0000 H   0  0  0  0  0  0  0  0  0  0  0  0
    4.3751   -0.0352    0.0000 H   0  0  0  0  0  0  0  0  0  0  0  0
    5.8819   -1.8778    0.0000 H   0  0  0  0  0  0  0  0  0  0  0  0
    4.8709   -3.2718    0.0000 H   0  0  0  0  0  0  0  0  0  0  0  0
    2.8660   -0.2578    0.0000 H   0  0  0  0  0  0  0  0  0  0  0  0
    2.8660   -3.4978    0.0000 H   0  0  0  0  0  0  0  0  0  0  0  0
    1.4631   -1.0678    0.0000 H   0  0  0  0  0  0  0  0  0  0  0  0
    1.4631   -2.6878    0.0000 H   0  0  0  0  0  0  0  0  0  0  0  0
  1 11  2  0  0  0  0
  2  4  1  0  0  0  0
  2  7  1  0  0  0  0
  2 11  1  0  0  0  0
  3 15  1  0  0  0  0
  3 16  1  0  0  0  0
  3 38  1  0  0  0  0
  4  5  1  0  0  0  0
  4 10  1  0  0  0  0
  4 21  1  0  0  0  0
  5  6  1  0  0  0  0
  5 22  1  0  0  0  0
  5 23  1  0  0  0  0
  6  8  1  0  0  0  0
  6 24  1  0  0  0  0
  6 25  1  0  0  0  0
  7  9  1  0  0  0  0
  7 26  1  0  0  0  0
  7 27  1  0  0  0  0
  8  9  1  0  0  0  0
  8 28  1  0  0  0  0
  8 29  1  0  0  0  0
  9 30  1  0  0  0  0
  9 31  1  0  0  0  0
 10 32  1  0  0  0  0
 10 33  1  0  0  0  0
 10 34  1  0  0  0  0
 11 12  1  0  0  0  0
 12 13  1  0  0  0  0
 12 35  1  0  0  0  0
 12 36  1  0  0  0  0
 13 14  1  0  0  0  0
 13 15  2  0  0  0  0
 14 16  1  0  0  0  0
 14 17  2  0  0  0  0
 15 37  1  0  0  0  0
 16 18  2  0  0  0  0
 17 19  1  0  0  0  0
 17 39  1  0  0  0  0
 18 20  1  0  0  0  0
 18 40  1  0  0  0  0
 19 20  2  0  0  0  0
 19 41  1  0  0  0  0
 20 42  1  0  0  0  0
M  END
> <PUBCHEM_COMPOUND_CID>
64162505

> <PUBCHEM_COMPOUND_CANONICALIZED>
1

> <PUBCHEM_CACTVS_COMPLEXITY>
344

> <PUBCHEM_CACTVS_HBOND_ACCEPTOR>
1

> <PUBCHEM_CACTVS_HBOND_DONOR>
1

> <PUBCHEM_CACTVS_ROTATABLE_BOND>
2

> <PUBCHEM_CACTVS_SUBSKEYS>
AAADceB7IAAAAAAAAAAAAAAAAAAAAWAAAAAwAAAABYAAAFgB8AAAHgAQAAAADCjBngQ+wPPJkACoAzV3VACCgCAxAiAI2aE4ZJgIIPLAlZGEIAhglgDIyAccicCegAAAAAACAAAAAAAAAAQAAAAAAAAAAA==

> <PUBCHEM_IUPAC_OPENEYE_NAME>
2-(1H-indol-3-yl)-1-(2-methylazepan-1-yl)ethanone

> <PUBCHEM_IUPAC_CAS_NAME>
2-(1H-indol-3-yl)-1-(2-methyl-1-azepanyl)ethanone

> <PUBCHEM_IUPAC_NAME>
2-(1H-indol-3-yl)-1-(2-methylazepan-1-yl)ethanone

> <PUBCHEM_IUPAC_SYSTEMATIC_NAME>
2-(1H-indol-3-yl)-1-(2-methylazepan-1-yl)ethanone

> <PUBCHEM_IUPAC_TRADITIONAL_NAME>
2-(1H-indol-3-yl)-1-(2-methylazepan-1-yl)ethanone

> <PUBCHEM_IUPAC_INCHI>
InChI=1S/C17H22N2O/c1-13-7-3-2-6-10-19(13)17(20)11-14-12-18-16-9-5-4-8-15(14)16/h4-5,8-9,12-13,18H,2-3,6-7,10-11H2,1H3

> <PUBCHEM_IUPAC_INCHIKEY>
JHZVPHGFPRVIKN-UHFFFAOYSA-N

> <PUBCHEM_XLOGP3>
3

> <PUBCHEM_EXACT_MASS>
270.173213

> <PUBCHEM_MOLECULAR_FORMULA>
C17H22N2O

> <PUBCHEM_MOLECULAR_WEIGHT>
270.36938

> <PUBCHEM_OPENEYE_CAN_SMILES>
CC1CCCCCN1C(=O)CC2=CNC3=CC=CC=C32

> <PUBCHEM_OPENEYE_ISO_SMILES>
CC1CCCCCN1C(=O)CC2=CNC3=CC=CC=C32

> <PUBCHEM_CACTVS_TPSA>
36.1

> <PUBCHEM_MONOISOTOPIC_WEIGHT>
270.173213

> <PUBCHEM_TOTAL_CHARGE>
0

> <PUBCHEM_HEAVY_ATOM_COUNT>
20

> <PUBCHEM_ATOM_DEF_STEREO_COUNT>
0

> <PUBCHEM_ATOM_UDEF_STEREO_COUNT>
1

> <PUBCHEM_BOND_DEF_STEREO_COUNT>
0

> <PUBCHEM_BOND_UDEF_STEREO_COUNT>
0

> <PUBCHEM_ISOTOPIC_ATOM_COUNT>
0

> <PUBCHEM_COMPONENT_COUNT>
1

> <PUBCHEM_CACTVS_TAUTO_COUNT>
1

> <PUBCHEM_COORDINATE_TYPE>
1
5
255

> <PUBCHEM_BONDANNOTATIONS>
13  14  8
13  15  8
14  16  8
14  17  8
16  18  8
17  19  8
18  20  8
19  20  8
3  15  8
3  16  8
4  10  3

$$$$
