41527232
  -OEChem-11301217492D

 30 30  0     0  0  0  0  0  0999 V2000
    4.5981    1.7500    0.0000 N   0  3  0  0  0  0  0  0  0  0  0  0
    3.7320    1.2500    0.0000 C   0  0  0  0  0  0  0  0  0  0  0  0
    3.7320    0.2500    0.0000 C   0  0  0  0  0  0  0  0  0  0  0  0
    2.8660   -0.2500    0.0000 C   0  0  0  0  0  0  0  0  0  0  0  0
    5.4641    2.2500    0.0000 C   0  0  0  0  0  0  0  0  0  0  0  0
    2.8660   -1.2500    0.0000 C   0  0  0  0  0  0  0  0  0  0  0  0
    5.4641    3.2500    0.0000 C   0  0  0  0  0  0  0  0  0  0  0  0
    2.0000   -1.7500    0.0000 C   0  0  0  0  0  0  0  0  0  0  0  0
    3.7320   -1.7500    0.0000 C   0  0  0  0  0  0  0  0  0  0  0  0
    2.0000   -2.7500    0.0000 C   0  0  0  0  0  0  0  0  0  0  0  0
    3.7320   -2.7500    0.0000 C   0  0  0  0  0  0  0  0  0  0  0  0
    2.8660   -3.2500    0.0000 C   0  0  0  0  0  0  0  0  0  0  0  0
    3.5200    1.8326    0.0000 H   0  0  0  0  0  0  0  0  0  0  0  0
    3.1215    1.1423    0.0000 H   0  0  0  0  0  0  0  0  0  0  0  0
    3.9441   -0.3326    0.0000 H   0  0  0  0  0  0  0  0  0  0  0  0
    4.3426    0.3577    0.0000 H   0  0  0  0  0  0  0  0  0  0  0  0
    4.2881    2.2869    0.0000 H   0  0  0  0  0  0  0  0  0  0  0  0
    4.9081    1.2131    0.0000 H   0  0  0  0  0  0  0  0  0  0  0  0
    2.6540    0.3326    0.0000 H   0  0  0  0  0  0  0  0  0  0  0  0
    2.2554   -0.3577    0.0000 H   0  0  0  0  0  0  0  0  0  0  0  0
    5.6762    1.6674    0.0000 H   0  0  0  0  0  0  0  0  0  0  0  0
    6.0747    2.3577    0.0000 H   0  0  0  0  0  0  0  0  0  0  0  0
    6.0841    3.2500    0.0000 H   0  0  0  0  0  0  0  0  0  0  0  0
    5.4641    3.8700    0.0000 H   0  0  0  0  0  0  0  0  0  0  0  0
    4.8441    3.2500    0.0000 H   0  0  0  0  0  0  0  0  0  0  0  0
    1.4631   -1.4400    0.0000 H   0  0  0  0  0  0  0  0  0  0  0  0
    4.2690   -1.4400    0.0000 H   0  0  0  0  0  0  0  0  0  0  0  0
    1.4631   -3.0600    0.0000 H   0  0  0  0  0  0  0  0  0  0  0  0
    4.2690   -3.0600    0.0000 H   0  0  0  0  0  0  0  0  0  0  0  0
    2.8660   -3.8700    0.0000 H   0  0  0  0  0  0  0  0  0  0  0  0
  1  2  1  0  0  0  0
  1  5  1  0  0  0  0
  1 17  1  0  0  0  0
  1 18  1  0  0  0  0
  2  3  1  0  0  0  0
  2 13  1  0  0  0  0
  2 14  1  0  0  0  0
  3  4  1  0  0  0  0
  3 15  1  0  0  0  0
  3 16  1  0  0  0  0
  4  6  1  0  0  0  0
  4 19  1  0  0  0  0
  4 20  1  0  0  0  0
  5  7  1  0  0  0  0
  5 21  1  0  0  0  0
  5 22  1  0  0  0  0
  6  8  2  0  0  0  0
  6  9  1  0  0  0  0
  7 23  1  0  0  0  0
  7 24  1  0  0  0  0
  7 25  1  0  0  0  0
  8 10  1  0  0  0  0
  8 26  1  0  0  0  0
  9 11  2  0  0  0  0
  9 27  1  0  0  0  0
 10 12  2  0  0  0  0
 10 28  1  0  0  0  0
 11 12  1  0  0  0  0
 11 29  1  0  0  0  0
 12 30  1  0  0  0  0
M  CHG  1   1   1
M  END
> <PUBCHEM_COMPOUND_CID>
41527232

> <PUBCHEM_COMPOUND_CANONICALIZED>
1

> <PUBCHEM_CACTVS_COMPLEXITY>
95.2

> <PUBCHEM_CACTVS_HBOND_ACCEPTOR>
0

> <PUBCHEM_CACTVS_HBOND_DONOR>
1

> <PUBCHEM_CACTVS_ROTATABLE_BOND>
5

> <PUBCHEM_CACTVS_SUBSKEYS>
AAADceByAAAAAAAAAAAAAAAAAAAAAAAAAAAwAAAAAAAAAAABAAAAHAAQAAAADADBGAQyAILAAACAAiBCAAACAAAgAAAIiIAIAIgIICKAkRCEIAAgkACIiAcQgIAOAAAAAAAAAAAAAAAAAAAAAAAAAAAAAA==

> <PUBCHEM_IUPAC_OPENEYE_NAME>
ethyl(3-phenylpropyl)ammonium

> <PUBCHEM_IUPAC_CAS_NAME>
ethyl(3-phenylpropyl)ammonium

> <PUBCHEM_IUPAC_NAME>
ethyl(3-phenylpropyl)azanium

> <PUBCHEM_IUPAC_SYSTEMATIC_NAME>
ethyl(3-phenylpropyl)azanium

> <PUBCHEM_IUPAC_TRADITIONAL_NAME>
ethyl(3-phenylpropyl)ammonium

> <PUBCHEM_IUPAC_INCHI>
InChI=1S/C11H17N/c1-2-12-10-6-9-11-7-4-3-5-8-11/h3-5,7-8,12H,2,6,9-10H2,1H3/p+1

> <PUBCHEM_IUPAC_INCHIKEY>
LKGGWEZXOKZNML-UHFFFAOYSA-O

> <PUBCHEM_XLOGP3>
2.9

> <PUBCHEM_EXACT_MASS>
164.143925

> <PUBCHEM_MOLECULAR_FORMULA>
C11H18N+

> <PUBCHEM_MOLECULAR_WEIGHT>
164.26732

> <PUBCHEM_OPENEYE_CAN_SMILES>
CC[NH2+]CCCC1=CC=CC=C1

> <PUBCHEM_OPENEYE_ISO_SMILES>
CC[NH2+]CCCC1=CC=CC=C1

> <PUBCHEM_CACTVS_TPSA>
16.6

> <PUBCHEM_MONOISOTOPIC_WEIGHT>
164.143925

> <PUBCHEM_TOTAL_CHARGE>
1

> <PUBCHEM_HEAVY_ATOM_COUNT>
12

> <PUBCHEM_ATOM_DEF_STEREO_COUNT>
0

> <PUBCHEM_ATOM_UDEF_STEREO_COUNT>
0

> <PUBCHEM_BOND_DEF_STEREO_COUNT>
0

> <PUBCHEM_BOND_UDEF_STEREO_COUNT>
0

> <PUBCHEM_ISOTOPIC_ATOM_COUNT>
0

> <PUBCHEM_COMPONENT_COUNT>
1

> <PUBCHEM_CACTVS_TAUTO_COUNT>
1

> <PUBCHEM_COORDINATE_TYPE>
1
5
255

> <PUBCHEM_BONDANNOTATIONS>
10  12  8
11  12  8
6  8  8
6  9  8
8  10  8
9  11  8

$$$$
41542898
  -OEChem-11301217502D

 44 45  0     0  0  0  0  0  0999 V2000
    5.5000   -3.2320    0.0000 O   0  0  0  0  0  0  0  0  0  0  0  0
    8.5000    0.2321    0.0000 N   0  3  0  0  0  0  0  0  0  0  0  0
    5.5000   -1.5000    0.0000 N   0  0  0  0  0  0  0  0  0  0  0  0
    8.5000    2.2320    0.0000 C   0  0  0  0  0  0  0  0  0  0  0  0
    7.6340    0.7321    0.0000 C   0  0  0  0  0  0  0  0  0  0  0  0
    9.3660    0.7321    0.0000 C   0  0  0  0  0  0  0  0  0  0  0  0
    7.6340    1.7320    0.0000 C   0  0  0  0  0  0  0  0  0  0  0  0
    9.3660    1.7320    0.0000 C   0  0  0  0  0  0  0  0  0  0  0  0
    8.0000   -0.6340    0.0000 C   0  0  0  0  0  0  0  0  0  0  0  0
    8.5000    3.2320    0.0000 C   0  0  0  0  0  0  0  0  0  0  0  0
    7.0000   -0.6340    0.0000 C   0  0  0  0  0  0  0  0  0  0  0  0
    6.5000   -1.5000    0.0000 C   0  0  0  0  0  0  0  0  0  0  0  0
    5.0000   -2.3660    0.0000 C   0  0  0  0  0  0  0  0  0  0  0  0
    4.0000   -2.3660    0.0000 C   0  0  0  0  0  0  0  0  0  0  0  0
    3.5000   -3.2320    0.0000 C   0  0  0  0  0  0  0  0  0  0  0  0
    3.5000   -1.5000    0.0000 C   0  0  0  0  0  0  0  0  0  0  0  0
    2.5000   -3.2320    0.0000 C   0  0  0  0  0  0  0  0  0  0  0  0
    2.5000   -1.5000    0.0000 C   0  0  0  0  0  0  0  0  0  0  0  0
    2.0000   -2.3660    0.0000 C   0  0  0  0  0  0  0  0  0  0  0  0
    8.8100   -0.3049    0.0000 H   0  0  0  0  0  0  0  0  0  0  0  0
    9.0369    2.5420    0.0000 H   0  0  0  0  0  0  0  0  0  0  0  0
    7.0234    0.8397    0.0000 H   0  0  0  0  0  0  0  0  0  0  0  0
    7.4219    0.1494    0.0000 H   0  0  0  0  0  0  0  0  0  0  0  0
    9.5781    0.1494    0.0000 H   0  0  0  0  0  0  0  0  0  0  0  0
    9.9766    0.8397    0.0000 H   0  0  0  0  0  0  0  0  0  0  0  0
    7.4219    2.3147    0.0000 H   0  0  0  0  0  0  0  0  0  0  0  0
    9.9766    1.6244    0.0000 H   0  0  0  0  0  0  0  0  0  0  0  0
    9.5781    2.3147    0.0000 H   0  0  0  0  0  0  0  0  0  0  0  0
    7.0234    1.6244    0.0000 H   0  0  0  0  0  0  0  0  0  0  0  0
    7.8923   -1.2446    0.0000 H   0  0  0  0  0  0  0  0  0  0  0  0
    8.5826   -0.8460    0.0000 H   0  0  0  0  0  0  0  0  0  0  0  0
    9.1200    3.2320    0.0000 H   0  0  0  0  0  0  0  0  0  0  0  0
    8.5000    3.8520    0.0000 H   0  0  0  0  0  0  0  0  0  0  0  0
    7.8800    3.2320    0.0000 H   0  0  0  0  0  0  0  0  0  0  0  0
    7.1077   -0.0234    0.0000 H   0  0  0  0  0  0  0  0  0  0  0  0
    6.4174   -0.4219    0.0000 H   0  0  0  0  0  0  0  0  0  0  0  0
    6.3923   -2.1106    0.0000 H   0  0  0  0  0  0  0  0  0  0  0  0
    7.0826   -1.7120    0.0000 H   0  0  0  0  0  0  0  0  0  0  0  0
    5.1900   -0.9631    0.0000 H   0  0  0  0  0  0  0  0  0  0  0  0
    3.8100   -3.7690    0.0000 H   0  0  0  0  0  0  0  0  0  0  0  0
    3.8100   -0.9631    0.0000 H   0  0  0  0  0  0  0  0  0  0  0  0
    2.1900   -3.7690    0.0000 H   0  0  0  0  0  0  0  0  0  0  0  0
    2.1900   -0.9631    0.0000 H   0  0  0  0  0  0  0  0  0  0  0  0
    1.3800   -2.3660    0.0000 H   0  0  0  0  0  0  0  0  0  0  0  0
  1 13  2  0  0  0  0
  2  5  1  0  0  0  0
  2  6  1  0  0  0  0
  2  9  1  0  0  0  0
  2 20  1  0  0  0  0
  3 12  1  0  0  0  0
  3 13  1  0  0  0  0
  3 39  1  0  0  0  0
  4  7  1  0  0  0  0
  4  8  1  0  0  0  0
  4 10  1  0  0  0  0
  4 21  1  0  0  0  0
  5  7  1  0  0  0  0
  5 22  1  0  0  0  0
  5 23  1  0  0  0  0
  6  8  1  0  0  0  0
  6 24  1  0  0  0  0
  6 25  1  0  0  0  0
  7 26  1  0  0  0  0
  7 29  1  0  0  0  0
  8 27  1  0  0  0  0
  8 28  1  0  0  0  0
  9 11  1  0  0  0  0
  9 30  1  0  0  0  0
  9 31  1  0  0  0  0
 10 32  1  0  0  0  0
 10 33  1  0  0  0  0
 10 34  1  0  0  0  0
 11 12  1  0  0  0  0
 11 35  1  0  0  0  0
 11 36  1  0  0  0  0
 12 37  1  0  0  0  0
 12 38  1  0  0  0  0
 13 14  1  0  0  0  0
 14 15  2  0  0  0  0
 14 16  1  0  0  0  0
 15 17  1  0  0  0  0
 15 40  1  0  0  0  0
 16 18  2  0  0  0  0
 16 41  1  0  0  0  0
 17 19  2  0  0  0  0
 17 42  1  0  0  0  0
 18 19  1  0  0  0  0
 18 43  1  0  0  0  0
 19 44  1  0  0  0  0
M  CHG  1   2   1
M  END
> <PUBCHEM_COMPOUND_CID>
41542898

> <PUBCHEM_COMPOUND_CANONICALIZED>
1

> <PUBCHEM_CACTVS_COMPLEXITY>
266

> <PUBCHEM_CACTVS_HBOND_ACCEPTOR>
1

> <PUBCHEM_CACTVS_HBOND_DONOR>
2

> <PUBCHEM_CACTVS_ROTATABLE_BOND>
5

> <PUBCHEM_CACTVS_SUBSKEYS>
AAADceB7IAAAAAAAAAAAAAAAAAAAAAAAAAA8QAAAAAAAAAABAAAAHgAQAAAADQDBmAQyAIPAAACIAiFSEACCAAAkAAAIiIEIBMgIIDKA1RGEIQhglgCIiYcYiACOAAAAAAAAAAAAAAAAAAAAAAAAAAAAAA==

> <PUBCHEM_IUPAC_OPENEYE_NAME>
N-[3-(4-methylpiperidin-1-ium-1-yl)propyl]benzamide

> <PUBCHEM_IUPAC_CAS_NAME>
N-[3-(4-methyl-1-piperidin-1-iumyl)propyl]benzamide

> <PUBCHEM_IUPAC_NAME>
N-[3-(4-methylpiperidin-1-ium-1-yl)propyl]benzamide

> <PUBCHEM_IUPAC_SYSTEMATIC_NAME>
N-[3-(4-methylpiperidin-1-ium-1-yl)propyl]benzamide

> <PUBCHEM_IUPAC_TRADITIONAL_NAME>
N-[3-(4-methylpiperidin-1-ium-1-yl)propyl]benzamide

> <PUBCHEM_IUPAC_INCHI>
InChI=1S/C16H24N2O/c1-14-8-12-18(13-9-14)11-5-10-17-16(19)15-6-3-2-4-7-15/h2-4,6-7,14H,5,8-13H2,1H3,(H,17,19)/p+1

> <PUBCHEM_IUPAC_INCHIKEY>
JGQYZMDXVDMQPE-UHFFFAOYSA-O

> <PUBCHEM_XLOGP3>
2.6

> <PUBCHEM_EXACT_MASS>
261.196688

> <PUBCHEM_MOLECULAR_FORMULA>
C16H25N2O+

> <PUBCHEM_MOLECULAR_WEIGHT>
261.3825

> <PUBCHEM_OPENEYE_CAN_SMILES>
CC1CC[NH+](CC1)CCCNC(=O)C2=CC=CC=C2

> <PUBCHEM_OPENEYE_ISO_SMILES>
CC1CC[NH+](CC1)CCCNC(=O)C2=CC=CC=C2

> <PUBCHEM_CACTVS_TPSA>
33.5

> <PUBCHEM_MONOISOTOPIC_WEIGHT>
261.196688

> <PUBCHEM_TOTAL_CHARGE>
1

> <PUBCHEM_HEAVY_ATOM_COUNT>
19

> <PUBCHEM_ATOM_DEF_STEREO_COUNT>
0

> <PUBCHEM_ATOM_UDEF_STEREO_COUNT>
0

> <PUBCHEM_BOND_DEF_STEREO_COUNT>
0

> <PUBCHEM_BOND_UDEF_STEREO_COUNT>
0

> <PUBCHEM_ISOTOPIC_ATOM_COUNT>
0

> <PUBCHEM_COMPONENT_COUNT>
1

> <PUBCHEM_CACTVS_TAUTO_COUNT>
2

> <PUBCHEM_COORDINATE_TYPE>
1
5
255

> <PUBCHEM_BONDANNOTATIONS>
14  15  8
14  16  8
15  17  8
16  18  8
17  19  8
18  19  8

$$$$
