28825069
  -OEChem-12041211372D

 29 30  0     0  0  0  0  0  0999 V2000
    2.0000    1.0000    0.0000 Cl  0  0  0  0  0  0  0  0  0  0  0  0
    5.4641    1.0000    0.0000 O   0  0  0  0  0  0  0  0  0  0  0  0
    9.5920    0.0000    0.0000 C   0  0  0  0  0  0  0  0  0  0  0  0
    9.0084    0.8047    0.0000 C   0  0  0  0  0  0  0  0  0  0  0  0
    9.0084   -0.8047    0.0000 C   0  0  0  0  0  0  0  0  0  0  0  0
    8.0622    0.5000    0.0000 C   0  0  0  0  0  0  0  0  0  0  0  0
    8.0622   -0.5000    0.0000 C   0  0  0  0  0  0  0  0  0  0  0  0
    7.1962    1.0000    0.0000 C   0  0  0  0  0  0  0  0  0  0  0  0
    7.1962   -1.0000    0.0000 C   0  0  0  0  0  0  0  0  0  0  0  0
    6.3301    0.5000    0.0000 C   0  0  0  0  0  0  0  0  0  0  0  0
    6.3301   -0.5000    0.0000 C   0  0  0  0  0  0  0  0  0  0  0  0
    4.5981    0.5000    0.0000 C   0  0  0  0  0  0  0  0  0  0  0  0
    3.7320    1.0000    0.0000 C   0  0  0  0  0  0  0  0  0  0  0  0
    2.8660    0.5000    0.0000 C   0  0  0  0  0  0  0  0  0  0  0  0
   10.0529   -0.4147    0.0000 H   0  0  0  0  0  0  0  0  0  0  0  0
   10.0529    0.4147    0.0000 H   0  0  0  0  0  0  0  0  0  0  0  0
    9.5458    1.1140    0.0000 H   0  0  0  0  0  0  0  0  0  0  0  0
    8.7574    1.3716    0.0000 H   0  0  0  0  0  0  0  0  0  0  0  0
    8.7574   -1.3716    0.0000 H   0  0  0  0  0  0  0  0  0  0  0  0
    9.5458   -1.1140    0.0000 H   0  0  0  0  0  0  0  0  0  0  0  0
    7.1962    1.6200    0.0000 H   0  0  0  0  0  0  0  0  0  0  0  0
    7.1962   -1.6200    0.0000 H   0  0  0  0  0  0  0  0  0  0  0  0
    5.7932   -0.8100    0.0000 H   0  0  0  0  0  0  0  0  0  0  0  0
    4.1996    0.0251    0.0000 H   0  0  0  0  0  0  0  0  0  0  0  0
    4.9966    0.0251    0.0000 H   0  0  0  0  0  0  0  0  0  0  0  0
    4.1306    1.4750    0.0000 H   0  0  0  0  0  0  0  0  0  0  0  0
    3.3335    1.4750    0.0000 H   0  0  0  0  0  0  0  0  0  0  0  0
    2.4675    0.0251    0.0000 H   0  0  0  0  0  0  0  0  0  0  0  0
    3.2646    0.0251    0.0000 H   0  0  0  0  0  0  0  0  0  0  0  0
  1 14  1  0  0  0  0
  2 10  1  0  0  0  0
  2 12  1  0  0  0  0
  3  4  1  0  0  0  0
  3  5  1  0  0  0  0
  3 15  1  0  0  0  0
  3 16  1  0  0  0  0
  4  6  1  0  0  0  0
  4 17  1  0  0  0  0
  4 18  1  0  0  0  0
  5  7  1  0  0  0  0
  5 19  1  0  0  0  0
  5 20  1  0  0  0  0
  6  7  2  0  0  0  0
  6  8  1  0  0  0  0
  7  9  1  0  0  0  0
  8 10  2  0  0  0  0
  8 21  1  0  0  0  0
  9 11  2  0  0  0  0
  9 22  1  0  0  0  0
 10 11  1  0  0  0  0
 11 23  1  0  0  0  0
 12 13  1  0  0  0  0
 12 24  1  0  0  0  0
 12 25  1  0  0  0  0
 13 14  1  0  0  0  0
 13 26  1  0  0  0  0
 13 27  1  0  0  0  0
 14 28  1  0  0  0  0
 14 29  1  0  0  0  0
M  END
> <PUBCHEM_COMPOUND_CID>
28825069

> <PUBCHEM_COMPOUND_CANONICALIZED>
1

> <PUBCHEM_CACTVS_COMPLEXITY>
172

> <PUBCHEM_CACTVS_HBOND_ACCEPTOR>
1

> <PUBCHEM_CACTVS_HBOND_DONOR>
0

> <PUBCHEM_CACTVS_ROTATABLE_BOND>
4

> <PUBCHEM_CACTVS_SUBSKEYS>
AAADccBwIAAEAAAAAAAAAAAAAAAAAYAAAAAwAAAAAAAAAGABAAAAGgIAAAAADAegmEIwBoAABACAAiBCAAACCAAgIAAIiAAGCogMJiKEMRqCOCCkwBEIqAeAwLAOoAABAAAQAABAAAIAACAAAAAACAAAAA==

> <PUBCHEM_IUPAC_OPENEYE_NAME>
5-(3-chloropropoxy)indane

> <PUBCHEM_IUPAC_CAS_NAME>
5-(3-chloropropoxy)-2,3-dihydro-1H-indene

> <PUBCHEM_IUPAC_NAME>
5-(3-chloropropoxy)-2,3-dihydro-1H-indene

> <PUBCHEM_IUPAC_SYSTEMATIC_NAME>
5-(3-chloranylpropoxy)-2,3-dihydro-1H-indene

> <PUBCHEM_IUPAC_TRADITIONAL_NAME>
5-(3-chloropropoxy)indane

> <PUBCHEM_IUPAC_INCHI>
InChI=1S/C12H15ClO/c13-7-2-8-14-12-6-5-10-3-1-4-11(10)9-12/h5-6,9H,1-4,7-8H2

> <PUBCHEM_IUPAC_INCHIKEY>
WKMVLTFBQIYPPP-UHFFFAOYSA-N

> <PUBCHEM_XLOGP3>
3.7

> <PUBCHEM_EXACT_MASS>
210.081143

> <PUBCHEM_MOLECULAR_FORMULA>
C12H15ClO

> <PUBCHEM_MOLECULAR_WEIGHT>
210.6999

> <PUBCHEM_OPENEYE_CAN_SMILES>
C1CC2=C(C1)C=C(C=C2)OCCCCl

> <PUBCHEM_OPENEYE_ISO_SMILES>
C1CC2=C(C1)C=C(C=C2)OCCCCl

> <PUBCHEM_CACTVS_TPSA>
9.2

> <PUBCHEM_MONOISOTOPIC_WEIGHT>
210.081143

> <PUBCHEM_TOTAL_CHARGE>
0

> <PUBCHEM_HEAVY_ATOM_COUNT>
14

> <PUBCHEM_ATOM_DEF_STEREO_COUNT>
0

> <PUBCHEM_ATOM_UDEF_STEREO_COUNT>
0

> <PUBCHEM_BOND_DEF_STEREO_COUNT>
0

> <PUBCHEM_BOND_UDEF_STEREO_COUNT>
0

> <PUBCHEM_ISOTOPIC_ATOM_COUNT>
0

> <PUBCHEM_COMPONENT_COUNT>
1

> <PUBCHEM_CACTVS_TAUTO_COUNT>
1

> <PUBCHEM_COORDINATE_TYPE>
1
5
255

> <PUBCHEM_BONDANNOTATIONS>
10  11  8
6  7  8
6  8  8
7  9  8
8  10  8
9  11  8

$$$$
28827255
  -OEChem-12041211372D

 47 47  0     1  0  0  0  0  0999 V2000
    4.8885   -1.9721    0.0000 N   0  3  3  0  0  0  0  0  0  0  0  0
    6.2740    1.6811    0.0000 N   0  3  3  0  0  0  0  0  0  0  0  0
    2.9350    0.8581    0.0000 N   0  0  0  0  0  0  0  0  0  0  0  0
    5.8595   -1.7328    0.0000 C   0  0  0  0  0  0  0  0  0  0  0  0
    6.8421    0.8581    0.0000 C   0  0  0  0  0  0  0  0  0  0  0  0
    6.6080   -1.0696    0.0000 C   0  0  0  0  0  0  0  0  0  0  0  0
    6.9626   -0.1346    0.0000 C   0  0  0  0  0  0  0  0  0  0  0  0
    5.3885    2.1458    0.0000 C   0  0  0  0  0  0  0  0  0  0  0  0
    3.9176   -1.7328    0.0000 C   0  0  0  0  0  0  0  0  0  0  0  0
    3.1691   -1.0696    0.0000 C   0  0  0  0  0  0  0  0  0  0  0  0
    4.3885    2.1458    0.0000 C   0  0  0  0  0  0  0  0  0  0  0  0
    2.8145   -0.1346    0.0000 C   0  0  0  0  0  0  0  0  0  0  0  0
    3.5031    1.6811    0.0000 C   0  0  0  0  0  0  0  0  0  0  0  0
    6.2136    2.6792    0.0000 C   0  0  0  0  0  0  0  0  0  0  0  0
    4.1815   -2.6792    0.0000 C   0  0  0  0  0  0  0  0  0  0  0  0
    2.0000    1.2127    0.0000 C   0  0  0  0  0  0  0  0  0  0  0  0
    6.7912    2.0229    0.0000 H   0  0  0  0  0  0  0  0  0  0  0  0
    5.0490   -2.5710    0.0000 H   0  0  0  0  0  0  0  0  0  0  0  0
    5.7848   -2.3482    0.0000 H   0  0  0  0  0  0  0  0  0  0  0  0
    7.4440    0.7097    0.0000 H   0  0  0  0  0  0  0  0  0  0  0  0
    6.2624    0.6382    0.0000 H   0  0  0  0  0  0  0  0  0  0  0  0
    5.5714   -1.1838    0.0000 H   0  0  0  0  0  0  0  0  0  0  0  0
    6.8278   -1.6494    0.0000 H   0  0  0  0  0  0  0  0  0  0  0  0
    6.0977   -0.7174    0.0000 H   0  0  0  0  0  0  0  0  0  0  0  0
    7.4267   -0.5458    0.0000 H   0  0  0  0  0  0  0  0  0  0  0  0
    6.3471   -0.0599    0.0000 H   0  0  0  0  0  0  0  0  0  0  0  0
    3.3686   -2.0209    0.0000 H   0  0  0  0  0  0  0  0  0  0  0  0
    4.2057   -1.1838    0.0000 H   0  0  0  0  0  0  0  0  0  0  0  0
    5.8526    2.5569    0.0000 H   0  0  0  0  0  0  0  0  0  0  0  0
    5.2402    1.5438    0.0000 H   0  0  0  0  0  0  0  0  0  0  0  0
    4.6084    2.7255    0.0000 H   0  0  0  0  0  0  0  0  0  0  0  0
    4.5369    1.5438    0.0000 H   0  0  0  0  0  0  0  0  0  0  0  0
    2.5491   -1.0696    0.0000 H   0  0  0  0  0  0  0  0  0  0  0  0
    3.6793   -0.7174    0.0000 H   0  0  0  0  0  0  0  0  0  0  0  0
    3.4284    2.2965    0.0000 H   0  0  0  0  0  0  0  0  0  0  0  0
    3.9142    1.2170    0.0000 H   0  0  0  0  0  0  0  0  0  0  0  0
    2.2655    0.1535    0.0000 H   0  0  0  0  0  0  0  0  0  0  0  0
    3.4300   -0.0599    0.0000 H   0  0  0  0  0  0  0  0  0  0  0  0
    6.8325    2.7167    0.0000 H   0  0  0  0  0  0  0  0  0  0  0  0
    6.1762    3.2981    0.0000 H   0  0  0  0  0  0  0  0  0  0  0  0
    5.5948    2.6418    0.0000 H   0  0  0  0  0  0  0  0  0  0  0  0
    3.7430   -2.2409    0.0000 H   0  0  0  0  0  0  0  0  0  0  0  0
    3.7431   -3.1177    0.0000 H   0  0  0  0  0  0  0  0  0  0  0  0
    4.6199   -3.1176    0.0000 H   0  0  0  0  0  0  0  0  0  0  0  0
    2.2199    1.7924    0.0000 H   0  0  0  0  0  0  0  0  0  0  0  0
    1.4203    1.4325    0.0000 H   0  0  0  0  0  0  0  0  0  0  0  0
    1.7801    0.6330    0.0000 H   0  0  0  0  0  0  0  0  0  0  0  0
  1  4  1  0  0  0  0
  1  9  1  0  0  0  0
  1 15  1  0  0  0  0
  1 18  1  0  0  0  0
  2  5  1  0  0  0  0
  2  8  1  0  0  0  0
  2 14  1  0  0  0  0
  2 17  1  0  0  0  0
  3 12  1  0  0  0  0
  3 13  1  0  0  0  0
  3 16  1  0  0  0  0
  4  6  1  0  0  0  0
  4 19  1  0  0  0  0
  4 22  1  0  0  0  0
  5  7  1  0  0  0  0
  5 20  1  0  0  0  0
  5 21  1  0  0  0  0
  6  7  1  0  0  0  0
  6 23  1  0  0  0  0
  6 24  1  0  0  0  0
  7 25  1  0  0  0  0
  7 26  1  0  0  0  0
  8 11  1  0  0  0  0
  8 29  1  0  0  0  0
  8 30  1  0  0  0  0
  9 10  1  0  0  0  0
  9 27  1  0  0  0  0
  9 28  1  0  0  0  0
 10 12  1  0  0  0  0
 10 33  1  0  0  0  0
 10 34  1  0  0  0  0
 11 13  1  0  0  0  0
 11 31  1  0  0  0  0
 11 32  1  0  0  0  0
 12 37  1  0  0  0  0
 12 38  1  0  0  0  0
 13 35  1  0  0  0  0
 13 36  1  0  0  0  0
 14 39  1  0  0  0  0
 14 40  1  0  0  0  0
 14 41  1  0  0  0  0
 15 42  1  0  0  0  0
 15 43  1  0  0  0  0
 15 44  1  0  0  0  0
 16 45  1  0  0  0  0
 16 46  1  0  0  0  0
 16 47  1  0  0  0  0
M  CHG  2   1   1   2   1
M  END
> <PUBCHEM_COMPOUND_CID>
28827255

> <PUBCHEM_COMPOUND_CANONICALIZED>
1

> <PUBCHEM_CACTVS_COMPLEXITY>
155

> <PUBCHEM_CACTVS_HBOND_ACCEPTOR>
1

> <PUBCHEM_CACTVS_HBOND_DONOR>
2

> <PUBCHEM_CACTVS_ROTATABLE_BOND>
0

> <PUBCHEM_CACTVS_SUBSKEYS>
AAADceBzAAAAAAAAAAAAAAAAAAAAAAAAAAAAAAAAAAAAAAAAAAAAHAAQAAAACADBAAQCAAPAAAAAAAAAAAAAAAAAAAAAAIAIAAAAAAAAwAAEAAAAEACAAAAAAAAAAAAAAAAAAAAAAAAAAAAAAAAAAAAAAA==

> <PUBCHEM_IUPAC_OPENEYE_NAME>
1,5,9-trimethyl-5-aza-1,9-diazoniacyclotridecane

> <PUBCHEM_IUPAC_CAS_NAME>
1,5,9-trimethyl-5-aza-1,9-diazoniacyclotridecane

> <PUBCHEM_IUPAC_NAME>
1,5,9-trimethyl-5-aza-1,9-diazoniacyclotridecane

> <PUBCHEM_IUPAC_SYSTEMATIC_NAME>
1,5,9-trimethyl-5-aza-1,9-diazoniacyclotridecane

> <PUBCHEM_IUPAC_TRADITIONAL_NAME>
1,5,9-trimethyl-5-aza-1,9-diazoniacyclotridecane

> <PUBCHEM_IUPAC_INCHI>
InChI=1S/C13H29N3/c1-14-8-4-5-9-15(2)11-7-13-16(3)12-6-10-14/h4-13H2,1-3H3/p+2

> <PUBCHEM_IUPAC_INCHIKEY>
VVSDQNCCIJQQSP-UHFFFAOYSA-P

> <PUBCHEM_XLOGP3>
1.7

> <PUBCHEM_EXACT_MASS>
229.251798

> <PUBCHEM_MOLECULAR_FORMULA>
C13H31N3+2

> <PUBCHEM_MOLECULAR_WEIGHT>
229.40534

> <PUBCHEM_OPENEYE_CAN_SMILES>
C[NH+]1CCCC[NH+](CCCN(CCC1)C)C

> <PUBCHEM_OPENEYE_ISO_SMILES>
C[NH+]1CCCC[NH+](CCCN(CCC1)C)C

> <PUBCHEM_CACTVS_TPSA>
12.1

> <PUBCHEM_MONOISOTOPIC_WEIGHT>
229.251798

> <PUBCHEM_TOTAL_CHARGE>
2

> <PUBCHEM_HEAVY_ATOM_COUNT>
16

> <PUBCHEM_ATOM_DEF_STEREO_COUNT>
0

> <PUBCHEM_ATOM_UDEF_STEREO_COUNT>
0

> <PUBCHEM_BOND_DEF_STEREO_COUNT>
0

> <PUBCHEM_BOND_UDEF_STEREO_COUNT>
0

> <PUBCHEM_ISOTOPIC_ATOM_COUNT>
0

> <PUBCHEM_COMPONENT_COUNT>
1

> <PUBCHEM_CACTVS_TAUTO_COUNT>
1

> <PUBCHEM_COORDINATE_TYPE>
1
5
255

$$$$
28827553
  -OEChem-12041211372D

 34 34  0     1  0  0  0  0  0999 V2000
    4.5981   -0.5000    0.0000 O   0  0  0  0  0  0  0  0  0  0  0  0
    4.5981    1.5000    0.0000 N   0  3  0  0  0  0  0  0  0  0  0  0
    2.8660   -0.5000    0.0000 N   0  0  0  0  0  0  0  0  0  0  0  0
    3.7320    1.0000    0.0000 C   0  0  1  0  0  0  0  0  0  0  0  0
    5.4641    2.0000    0.0000 C   0  0  0  0  0  0  0  0  0  0  0  0
    5.4641    3.0000    0.0000 C   0  0  0  0  0  0  0  0  0  0  0  0
    2.8660    1.5000    0.0000 C   0  0  0  0  0  0  0  0  0  0  0  0
    3.7320    0.0000    0.0000 C   0  0  0  0  0  0  0  0  0  0  0  0
    6.3301    3.5000    0.0000 C   0  0  0  0  0  0  0  0  0  0  0  0
    2.8660   -1.5000    0.0000 C   0  0  0  0  0  0  0  0  0  0  0  0
    3.7320   -2.0000    0.0000 C   0  0  0  0  0  0  0  0  0  0  0  0
    2.0000   -2.0000    0.0000 C   0  0  0  0  0  0  0  0  0  0  0  0
    3.7320   -3.0000    0.0000 C   0  0  0  0  0  0  0  0  0  0  0  0
    2.0000   -3.0000    0.0000 C   0  0  0  0  0  0  0  0  0  0  0  0
    2.8660   -3.5000    0.0000 C   0  0  0  0  0  0  0  0  0  0  0  0
    3.7320    1.6200    0.0000 H   0  0  0  0  0  0  0  0  0  0  0  0
    4.2881    2.0369    0.0000 H   0  0  0  0  0  0  0  0  0  0  0  0
    4.9081    0.9631    0.0000 H   0  0  0  0  0  0  0  0  0  0  0  0
    5.6762    1.4174    0.0000 H   0  0  0  0  0  0  0  0  0  0  0  0
    6.0747    2.1077    0.0000 H   0  0  0  0  0  0  0  0  0  0  0  0
    5.2520    3.5826    0.0000 H   0  0  0  0  0  0  0  0  0  0  0  0
    4.8535    2.8923    0.0000 H   0  0  0  0  0  0  0  0  0  0  0  0
    3.1760    2.0369    0.0000 H   0  0  0  0  0  0  0  0  0  0  0  0
    2.3291    1.8100    0.0000 H   0  0  0  0  0  0  0  0  0  0  0  0
    2.5560    0.9631    0.0000 H   0  0  0  0  0  0  0  0  0  0  0  0
    6.6401    2.9631    0.0000 H   0  0  0  0  0  0  0  0  0  0  0  0
    6.8671    3.8100    0.0000 H   0  0  0  0  0  0  0  0  0  0  0  0
    6.0201    4.0369    0.0000 H   0  0  0  0  0  0  0  0  0  0  0  0
    2.3291   -0.1900    0.0000 H   0  0  0  0  0  0  0  0  0  0  0  0
    4.2690   -1.6900    0.0000 H   0  0  0  0  0  0  0  0  0  0  0  0
    1.4631   -1.6900    0.0000 H   0  0  0  0  0  0  0  0  0  0  0  0
    4.2690   -3.3100    0.0000 H   0  0  0  0  0  0  0  0  0  0  0  0
    1.4631   -3.3100    0.0000 H   0  0  0  0  0  0  0  0  0  0  0  0
    2.8660   -4.1200    0.0000 H   0  0  0  0  0  0  0  0  0  0  0  0
  1  8  2  0  0  0  0
  4  2  1  6  0  0  0
  2  5  1  0  0  0  0
  2 17  1  0  0  0  0
  2 18  1  0  0  0  0
  3  8  1  0  0  0  0
  3 10  1  0  0  0  0
  3 29  1  0  0  0  0
  4  7  1  0  0  0  0
  4  8  1  0  0  0  0
  4 16  1  0  0  0  0
  5  6  1  0  0  0  0
  5 19  1  0  0  0  0
  5 20  1  0  0  0  0
  6  9  1  0  0  0  0
  6 21  1  0  0  0  0
  6 22  1  0  0  0  0
  7 23  1  0  0  0  0
  7 24  1  0  0  0  0
  7 25  1  0  0  0  0
  9 26  1  0  0  0  0
  9 27  1  0  0  0  0
  9 28  1  0  0  0  0
 10 11  2  0  0  0  0
 10 12  1  0  0  0  0
 11 13  1  0  0  0  0
 11 30  1  0  0  0  0
 12 14  2  0  0  0  0
 12 31  1  0  0  0  0
 13 15  2  0  0  0  0
 13 32  1  0  0  0  0
 14 15  1  0  0  0  0
 14 33  1  0  0  0  0
 15 34  1  0  0  0  0
M  CHG  1   2   1
M  END
> <PUBCHEM_COMPOUND_CID>
28827553

> <PUBCHEM_COMPOUND_CANONICALIZED>
1

> <PUBCHEM_CACTVS_COMPLEXITY>
188

> <PUBCHEM_CACTVS_HBOND_ACCEPTOR>
1

> <PUBCHEM_CACTVS_HBOND_DONOR>
2

> <PUBCHEM_CACTVS_ROTATABLE_BOND>
5

> <PUBCHEM_CACTVS_SUBSKEYS>
AAADceBzIAAAAAAAAAAAAAAAAAAAAAAAAAAwAAAAAAAAAAABAAAAHgAQAAAACCjBkAQywILAAACIACVSUACCAAAhAgAIiIGIZIgIYCLAkbGUIAhglADIyAcQAAAAAAAAAAAAAAAAAAAAAAAAAAAAAAAAAA==

> <PUBCHEM_IUPAC_OPENEYE_NAME>
[(1S)-2-anilino-1-methyl-2-oxo-ethyl]-propyl-ammonium

> <PUBCHEM_IUPAC_CAS_NAME>
[(2S)-1-anilino-1-oxopropan-2-yl]-propylammonium

> <PUBCHEM_IUPAC_NAME>
[(2S)-1-anilino-1-oxopropan-2-yl]-propylazanium

> <PUBCHEM_IUPAC_SYSTEMATIC_NAME>
[(2S)-1-oxidanylidene-1-phenylazanyl-propan-2-yl]-propyl-azanium

> <PUBCHEM_IUPAC_TRADITIONAL_NAME>
[(1S)-2-anilino-2-keto-1-methyl-ethyl]-propyl-ammonium

> <PUBCHEM_IUPAC_INCHI>
InChI=1S/C12H18N2O/c1-3-9-13-10(2)12(15)14-11-7-5-4-6-8-11/h4-8,10,13H,3,9H2,1-2H3,(H,14,15)/p+1/t10-/m0/s1

> <PUBCHEM_IUPAC_INCHIKEY>
DENITXZENVSYCJ-JTQLQIEISA-O

> <PUBCHEM_XLOGP3>
1.7

> <PUBCHEM_EXACT_MASS>
207.149738

> <PUBCHEM_MOLECULAR_FORMULA>
C12H19N2O+

> <PUBCHEM_MOLECULAR_WEIGHT>
207.29206

> <PUBCHEM_OPENEYE_CAN_SMILES>
CCC[NH2+]C(C)C(=O)NC1=CC=CC=C1

> <PUBCHEM_OPENEYE_ISO_SMILES>
CCC[NH2+][C@@H](C)C(=O)NC1=CC=CC=C1

> <PUBCHEM_CACTVS_TPSA>
45.7

> <PUBCHEM_MONOISOTOPIC_WEIGHT>
207.149738

> <PUBCHEM_TOTAL_CHARGE>
1

> <PUBCHEM_HEAVY_ATOM_COUNT>
15

> <PUBCHEM_ATOM_DEF_STEREO_COUNT>
1

> <PUBCHEM_ATOM_UDEF_STEREO_COUNT>
0

> <PUBCHEM_BOND_DEF_STEREO_COUNT>
0

> <PUBCHEM_BOND_UDEF_STEREO_COUNT>
0

> <PUBCHEM_ISOTOPIC_ATOM_COUNT>
0

> <PUBCHEM_COMPONENT_COUNT>
1

> <PUBCHEM_CACTVS_TAUTO_COUNT>
3

> <PUBCHEM_COORDINATE_TYPE>
1
5
255

> <PUBCHEM_BONDANNOTATIONS>
10  11  8
10  12  8
11  13  8
12  14  8
13  15  8
14  15  8
4  2  6

$$$$
28827555
  -OEChem-12041211372D

 34 34  0     1  0  0  0  0  0999 V2000
    4.5981   -0.5000    0.0000 O   0  0  0  0  0  0  0  0  0  0  0  0
    4.5981    1.5000    0.0000 N   0  3  0  0  0  0  0  0  0  0  0  0
    2.8660   -0.5000    0.0000 N   0  0  0  0  0  0  0  0  0  0  0  0
    3.7320    1.0000    0.0000 C   0  0  2  0  0  0  0  0  0  0  0  0
    5.4641    2.0000    0.0000 C   0  0  0  0  0  0  0  0  0  0  0  0
    5.4641    3.0000    0.0000 C   0  0  0  0  0  0  0  0  0  0  0  0
    2.8660    1.5000    0.0000 C   0  0  0  0  0  0  0  0  0  0  0  0
    3.7320    0.0000    0.0000 C   0  0  0  0  0  0  0  0  0  0  0  0
    6.3301    3.5000    0.0000 C   0  0  0  0  0  0  0  0  0  0  0  0
    2.8660   -1.5000    0.0000 C   0  0  0  0  0  0  0  0  0  0  0  0
    3.7320   -2.0000    0.0000 C   0  0  0  0  0  0  0  0  0  0  0  0
    2.0000   -2.0000    0.0000 C   0  0  0  0  0  0  0  0  0  0  0  0
    3.7320   -3.0000    0.0000 C   0  0  0  0  0  0  0  0  0  0  0  0
    2.0000   -3.0000    0.0000 C   0  0  0  0  0  0  0  0  0  0  0  0
    2.8660   -3.5000    0.0000 C   0  0  0  0  0  0  0  0  0  0  0  0
    3.7320    1.6200    0.0000 H   0  0  0  0  0  0  0  0  0  0  0  0
    4.2881    2.0369    0.0000 H   0  0  0  0  0  0  0  0  0  0  0  0
    4.9081    0.9631    0.0000 H   0  0  0  0  0  0  0  0  0  0  0  0
    5.6762    1.4174    0.0000 H   0  0  0  0  0  0  0  0  0  0  0  0
    6.0747    2.1077    0.0000 H   0  0  0  0  0  0  0  0  0  0  0  0
    5.2520    3.5826    0.0000 H   0  0  0  0  0  0  0  0  0  0  0  0
    4.8535    2.8923    0.0000 H   0  0  0  0  0  0  0  0  0  0  0  0
    3.1760    2.0369    0.0000 H   0  0  0  0  0  0  0  0  0  0  0  0
    2.3291    1.8100    0.0000 H   0  0  0  0  0  0  0  0  0  0  0  0
    2.5560    0.9631    0.0000 H   0  0  0  0  0  0  0  0  0  0  0  0
    6.6401    2.9631    0.0000 H   0  0  0  0  0  0  0  0  0  0  0  0
    6.8671    3.8100    0.0000 H   0  0  0  0  0  0  0  0  0  0  0  0
    6.0201    4.0369    0.0000 H   0  0  0  0  0  0  0  0  0  0  0  0
    2.3291   -0.1900    0.0000 H   0  0  0  0  0  0  0  0  0  0  0  0
    4.2690   -1.6900    0.0000 H   0  0  0  0  0  0  0  0  0  0  0  0
    1.4631   -1.6900    0.0000 H   0  0  0  0  0  0  0  0  0  0  0  0
    4.2690   -3.3100    0.0000 H   0  0  0  0  0  0  0  0  0  0  0  0
    1.4631   -3.3100    0.0000 H   0  0  0  0  0  0  0  0  0  0  0  0
    2.8660   -4.1200    0.0000 H   0  0  0  0  0  0  0  0  0  0  0  0
  1  8  2  0  0  0  0
  4  2  1  1  0  0  0
  2  5  1  0  0  0  0
  2 17  1  0  0  0  0
  2 18  1  0  0  0  0
  3  8  1  0  0  0  0
  3 10  1  0  0  0  0
  3 29  1  0  0  0  0
  4  7  1  0  0  0  0
  4  8  1  0  0  0  0
  4 16  1  0  0  0  0
  5  6  1  0  0  0  0
  5 19  1  0  0  0  0
  5 20  1  0  0  0  0
  6  9  1  0  0  0  0
  6 21  1  0  0  0  0
  6 22  1  0  0  0  0
  7 23  1  0  0  0  0
  7 24  1  0  0  0  0
  7 25  1  0  0  0  0
  9 26  1  0  0  0  0
  9 27  1  0  0  0  0
  9 28  1  0  0  0  0
 10 11  2  0  0  0  0
 10 12  1  0  0  0  0
 11 13  1  0  0  0  0
 11 30  1  0  0  0  0
 12 14  2  0  0  0  0
 12 31  1  0  0  0  0
 13 15  2  0  0  0  0
 13 32  1  0  0  0  0
 14 15  1  0  0  0  0
 14 33  1  0  0  0  0
 15 34  1  0  0  0  0
M  CHG  1   2   1
M  END
> <PUBCHEM_COMPOUND_CID>
28827555

> <PUBCHEM_COMPOUND_CANONICALIZED>
1

> <PUBCHEM_CACTVS_COMPLEXITY>
188

> <PUBCHEM_CACTVS_HBOND_ACCEPTOR>
1

> <PUBCHEM_CACTVS_HBOND_DONOR>
2

> <PUBCHEM_CACTVS_ROTATABLE_BOND>
5

> <PUBCHEM_CACTVS_SUBSKEYS>
AAADceBzIAAAAAAAAAAAAAAAAAAAAAAAAAAwAAAAAAAAAAABAAAAHgAQAAAACCjBkAQywILAAACIACVSUACCAAAhAgAIiIGIZIgIYCLAkbGUIAhglADIyAcQAAAAAAAAAAAAAAAAAAAAAAAAAAAAAAAAAA==

> <PUBCHEM_IUPAC_OPENEYE_NAME>
[(1R)-2-anilino-1-methyl-2-oxo-ethyl]-propyl-ammonium

> <PUBCHEM_IUPAC_CAS_NAME>
[(2R)-1-anilino-1-oxopropan-2-yl]-propylammonium

> <PUBCHEM_IUPAC_NAME>
[(2R)-1-anilino-1-oxopropan-2-yl]-propylazanium

> <PUBCHEM_IUPAC_SYSTEMATIC_NAME>
[(2R)-1-oxidanylidene-1-phenylazanyl-propan-2-yl]-propyl-azanium

> <PUBCHEM_IUPAC_TRADITIONAL_NAME>
[(1R)-2-anilino-2-keto-1-methyl-ethyl]-propyl-ammonium

> <PUBCHEM_IUPAC_INCHI>
InChI=1S/C12H18N2O/c1-3-9-13-10(2)12(15)14-11-7-5-4-6-8-11/h4-8,10,13H,3,9H2,1-2H3,(H,14,15)/p+1/t10-/m1/s1

> <PUBCHEM_IUPAC_INCHIKEY>
DENITXZENVSYCJ-SNVBAGLBSA-O

> <PUBCHEM_XLOGP3>
1.7

> <PUBCHEM_EXACT_MASS>
207.149738

> <PUBCHEM_MOLECULAR_FORMULA>
C12H19N2O+

> <PUBCHEM_MOLECULAR_WEIGHT>
207.29206

> <PUBCHEM_OPENEYE_CAN_SMILES>
CCC[NH2+]C(C)C(=O)NC1=CC=CC=C1

> <PUBCHEM_OPENEYE_ISO_SMILES>
CCC[NH2+][C@H](C)C(=O)NC1=CC=CC=C1

> <PUBCHEM_CACTVS_TPSA>
45.7

> <PUBCHEM_MONOISOTOPIC_WEIGHT>
207.149738

> <PUBCHEM_TOTAL_CHARGE>
1

> <PUBCHEM_HEAVY_ATOM_COUNT>
15

> <PUBCHEM_ATOM_DEF_STEREO_COUNT>
1

> <PUBCHEM_ATOM_UDEF_STEREO_COUNT>
0

> <PUBCHEM_BOND_DEF_STEREO_COUNT>
0

> <PUBCHEM_BOND_UDEF_STEREO_COUNT>
0

> <PUBCHEM_ISOTOPIC_ATOM_COUNT>
0

> <PUBCHEM_COMPONENT_COUNT>
1

> <PUBCHEM_CACTVS_TAUTO_COUNT>
3

> <PUBCHEM_COORDINATE_TYPE>
1
5
255

> <PUBCHEM_BONDANNOTATIONS>
10  11  8
10  12  8
11  13  8
12  14  8
13  15  8
14  15  8
4  2  5

$$$$
28829387
  -OEChem-12041211372D

 25 25  0     0  0  0  0  0  0999 V2000
    2.0000   -0.2685    0.0000 Cl  0  0  0  0  0  0  0  0  0  0  0  0
    5.4641    0.7315    0.0000 O   0  0  0  0  0  0  0  0  0  0  0  0
    3.7320    0.7315    0.0000 N   0  0  0  0  0  0  0  0  0  0  0  0
    5.4641    2.7315    0.0000 N   0  3  0  0  0  0  0  0  0  0  0  0
    3.7320   -0.2685    0.0000 C   0  0  0  0  0  0  0  0  0  0  0  0
    3.7320   -2.2685    0.0000 C   0  0  0  0  0  0  0  0  0  0  0  0
    4.5981    2.2315    0.0000 C   0  0  0  0  0  0  0  0  0  0  0  0
    2.8660   -0.7685    0.0000 C   0  0  0  0  0  0  0  0  0  0  0  0
    4.5981   -0.7685    0.0000 C   0  0  0  0  0  0  0  0  0  0  0  0
    2.8660   -1.7685    0.0000 C   0  0  0  0  0  0  0  0  0  0  0  0
    4.5981   -1.7685    0.0000 C   0  0  0  0  0  0  0  0  0  0  0  0
    4.5981    1.2315    0.0000 C   0  0  0  0  0  0  0  0  0  0  0  0
    3.7320   -3.2685    0.0000 C   0  0  0  0  0  0  0  0  0  0  0  0
    4.3860    2.8141    0.0000 H   0  0  0  0  0  0  0  0  0  0  0  0
    3.9875    2.1239    0.0000 H   0  0  0  0  0  0  0  0  0  0  0  0
    3.1951    1.0415    0.0000 H   0  0  0  0  0  0  0  0  0  0  0  0
    5.1350   -0.4585    0.0000 H   0  0  0  0  0  0  0  0  0  0  0  0
    2.3291   -2.0785    0.0000 H   0  0  0  0  0  0  0  0  0  0  0  0
    5.1350   -2.0785    0.0000 H   0  0  0  0  0  0  0  0  0  0  0  0
    6.0010    3.0415    0.0000 H   0  0  0  0  0  0  0  0  0  0  0  0
    5.1541    3.2685    0.0000 H   0  0  0  0  0  0  0  0  0  0  0  0
    5.7741    2.1946    0.0000 H   0  0  0  0  0  0  0  0  0  0  0  0
    3.1120   -3.2685    0.0000 H   0  0  0  0  0  0  0  0  0  0  0  0
    3.7320   -3.8885    0.0000 H   0  0  0  0  0  0  0  0  0  0  0  0
    4.3520   -3.2685    0.0000 H   0  0  0  0  0  0  0  0  0  0  0  0
  1  8  1  0  0  0  0
  2 12  2  0  0  0  0
  3  5  1  0  0  0  0
  3 12  1  0  0  0  0
  3 16  1  0  0  0  0
  4  7  1  0  0  0  0
  4 20  1  0  0  0  0
  4 21  1  0  0  0  0
  4 22  1  0  0  0  0
  5  8  2  0  0  0  0
  5  9  1  0  0  0  0
  6 10  2  0  0  0  0
  6 11  1  0  0  0  0
  6 13  1  0  0  0  0
  7 12  1  0  0  0  0
  7 14  1  0  0  0  0
  7 15  1  0  0  0  0
  8 10  1  0  0  0  0
  9 11  2  0  0  0  0
  9 17  1  0  0  0  0
 10 18  1  0  0  0  0
 11 19  1  0  0  0  0
 13 23  1  0  0  0  0
 13 24  1  0  0  0  0
 13 25  1  0  0  0  0
M  CHG  1   4   1
M  END
> <PUBCHEM_COMPOUND_CID>
28829387

> <PUBCHEM_COMPOUND_CANONICALIZED>
1

> <PUBCHEM_CACTVS_COMPLEXITY>
187

> <PUBCHEM_CACTVS_HBOND_ACCEPTOR>
1

> <PUBCHEM_CACTVS_HBOND_DONOR>
2

> <PUBCHEM_CACTVS_ROTATABLE_BOND>
2

> <PUBCHEM_CACTVS_SUBSKEYS>
AAADccBzIAAEAAAAAAAAAAAAAAAAAAAAAAAwAAAAAAAAAAABAAAAHgIQAAAADArBmCQywILAAACIAiVSUACCAAAhBwAIiICAZogIYCLBk5HUIAhglADIyAcQgAAOCAAAIAAAABAQAABAAAAAIAAAAAAAAA==

> <PUBCHEM_IUPAC_OPENEYE_NAME>
[2-(2-chloro-4-methyl-anilino)-2-oxo-ethyl]ammonium

> <PUBCHEM_IUPAC_CAS_NAME>
[2-(2-chloro-4-methylanilino)-2-oxoethyl]ammonium

> <PUBCHEM_IUPAC_NAME>
[2-(2-chloro-4-methylanilino)-2-oxoethyl]azanium

> <PUBCHEM_IUPAC_SYSTEMATIC_NAME>
[2-[(2-chloranyl-4-methyl-phenyl)amino]-2-oxidanylidene-ethyl]azanium

> <PUBCHEM_IUPAC_TRADITIONAL_NAME>
[2-(2-chloro-4-methyl-anilino)-2-keto-ethyl]ammonium

> <PUBCHEM_IUPAC_INCHI>
InChI=1S/C9H11ClN2O/c1-6-2-3-8(7(10)4-6)12-9(13)5-11/h2-4H,5,11H2,1H3,(H,12,13)/p+1

> <PUBCHEM_IUPAC_INCHIKEY>
VRRJHKKJIKUOGS-UHFFFAOYSA-O

> <PUBCHEM_XLOGP3>
1.5

> <PUBCHEM_EXACT_MASS>
199.063816

> <PUBCHEM_MOLECULAR_FORMULA>
C9H12ClN2O+

> <PUBCHEM_MOLECULAR_WEIGHT>
199.65738

> <PUBCHEM_OPENEYE_CAN_SMILES>
CC1=CC(=C(C=C1)NC(=O)C[NH3+])Cl

> <PUBCHEM_OPENEYE_ISO_SMILES>
CC1=CC(=C(C=C1)NC(=O)C[NH3+])Cl

> <PUBCHEM_CACTVS_TPSA>
56.7

> <PUBCHEM_MONOISOTOPIC_WEIGHT>
199.063816

> <PUBCHEM_TOTAL_CHARGE>
1

> <PUBCHEM_HEAVY_ATOM_COUNT>
13

> <PUBCHEM_ATOM_DEF_STEREO_COUNT>
0

> <PUBCHEM_ATOM_UDEF_STEREO_COUNT>
0

> <PUBCHEM_BOND_DEF_STEREO_COUNT>
0

> <PUBCHEM_BOND_UDEF_STEREO_COUNT>
0

> <PUBCHEM_ISOTOPIC_ATOM_COUNT>
0

> <PUBCHEM_COMPONENT_COUNT>
1

> <PUBCHEM_CACTVS_TAUTO_COUNT>
3

> <PUBCHEM_COORDINATE_TYPE>
1
5
255

> <PUBCHEM_BONDANNOTATIONS>
5  8  8
5  9  8
6  10  8
6  11  8
8  10  8
9  11  8

$$$$
28830542
  -OEChem-12041211372D

 28 30  0     0  0  0  0  0  0999 V2000
    9.2619   -0.6084    0.0000 I   0  0  0  0  0  0  0  0  0  0  0  0
    5.2619   -0.6084    0.0000 N   0  0  0  0  0  0  0  0  0  0  0  0
    4.9889    1.1469    0.0000 N   0  0  0  0  0  0  0  0  0  0  0  0
    4.6783   -1.4131    0.0000 C   0  0  0  0  0  0  0  0  0  0  0  0
    3.7320   -1.1084    0.0000 C   0  0  0  0  0  0  0  0  0  0  0  0
    3.7320   -0.1084    0.0000 C   0  0  0  0  0  0  0  0  0  0  0  0
    4.6783    0.1964    0.0000 C   0  0  0  0  0  0  0  0  0  0  0  0
    6.2619   -0.6084    0.0000 C   0  0  0  0  0  0  0  0  0  0  0  0
    2.8660   -1.6084    0.0000 C   0  0  0  0  0  0  0  0  0  0  0  0
    2.8660    0.3916    0.0000 C   0  0  0  0  0  0  0  0  0  0  0  0
    2.0000   -1.1084    0.0000 C   0  0  0  0  0  0  0  0  0  0  0  0
    6.7619   -1.4744    0.0000 C   0  0  0  0  0  0  0  0  0  0  0  0
    6.7619    0.2577    0.0000 C   0  0  0  0  0  0  0  0  0  0  0  0
    2.0000   -0.1084    0.0000 C   0  0  0  0  0  0  0  0  0  0  0  0
    7.7619   -1.4744    0.0000 C   0  0  0  0  0  0  0  0  0  0  0  0
    7.7619    0.2577    0.0000 C   0  0  0  0  0  0  0  0  0  0  0  0
    8.2619   -0.6084    0.0000 C   0  0  0  0  0  0  0  0  0  0  0  0
    4.4272   -1.9800    0.0000 H   0  0  0  0  0  0  0  0  0  0  0  0
    5.2156   -1.7223    0.0000 H   0  0  0  0  0  0  0  0  0  0  0  0
    2.8660   -2.2284    0.0000 H   0  0  0  0  0  0  0  0  0  0  0  0
    2.8660    1.0116    0.0000 H   0  0  0  0  0  0  0  0  0  0  0  0
    6.4519   -2.0113    0.0000 H   0  0  0  0  0  0  0  0  0  0  0  0
    6.4519    0.7946    0.0000 H   0  0  0  0  0  0  0  0  0  0  0  0
    1.4631   -1.4184    0.0000 H   0  0  0  0  0  0  0  0  0  0  0  0
    1.4631    0.2016    0.0000 H   0  0  0  0  0  0  0  0  0  0  0  0
    4.5749    1.6084    0.0000 H   0  0  0  0  0  0  0  0  0  0  0  0
    8.0719   -2.0113    0.0000 H   0  0  0  0  0  0  0  0  0  0  0  0
    8.0719    0.7946    0.0000 H   0  0  0  0  0  0  0  0  0  0  0  0
  1 17  1  0  0  0  0
  2  4  1  0  0  0  0
  2  7  1  0  0  0  0
  2  8  1  0  0  0  0
  3  7  2  0  0  0  0
  3 26  1  0  0  0  0
  4  5  1  0  0  0  0
  4 18  1  0  0  0  0
  4 19  1  0  0  0  0
  5  6  1  0  0  0  0
  5  9  2  0  0  0  0
  6  7  1  0  0  0  0
  6 10  2  0  0  0  0
  8 12  2  0  0  0  0
  8 13  1  0  0  0  0
  9 11  1  0  0  0  0
  9 20  1  0  0  0  0
 10 14  1  0  0  0  0
 10 21  1  0  0  0  0
 11 14  2  0  0  0  0
 11 24  1  0  0  0  0
 12 15  1  0  0  0  0
 12 22  1  0  0  0  0
 13 16  2  0  0  0  0
 13 23  1  0  0  0  0
 14 25  1  0  0  0  0
 15 17  2  0  0  0  0
 15 27  1  0  0  0  0
 16 17  1  0  0  0  0
 16 28  1  0  0  0  0
M  END
> <PUBCHEM_COMPOUND_CID>
28830542

> <PUBCHEM_COMPOUND_CANONICALIZED>
1

> <PUBCHEM_CACTVS_COMPLEXITY>
297

> <PUBCHEM_CACTVS_HBOND_ACCEPTOR>
1

> <PUBCHEM_CACTVS_HBOND_DONOR>
1

> <PUBCHEM_CACTVS_ROTATABLE_BOND>
1

> <PUBCHEM_CACTVS_SUBSKEYS>
AAADccBzAAAAAgAAAAAAAAAAAAAAAWAAAAAwYAAAAAAAAFgBQAAAHAAwAAAADAjDGAQxwINAAACgAiZiYACCAAChAgAJiAAoZJgIIKLAmZGEIAhggADIyAcQgIAOgAAAAAAQAAAAAAAAACAAAAAAAAAAAA==

> <PUBCHEM_IUPAC_OPENEYE_NAME>
2-(4-iodophenyl)isoindolin-1-imine

> <PUBCHEM_IUPAC_CAS_NAME>
2-(4-iodophenyl)-3H-isoindol-1-imine

> <PUBCHEM_IUPAC_NAME>
2-(4-iodophenyl)-3H-isoindol-1-imine

> <PUBCHEM_IUPAC_SYSTEMATIC_NAME>
2-(4-iodophenyl)-3H-isoindol-1-imine

> <PUBCHEM_IUPAC_TRADITIONAL_NAME>
[2-(4-iodophenyl)isoindolin-1-ylidene]amine

> <PUBCHEM_IUPAC_INCHI>
InChI=1S/C14H11IN2/c15-11-5-7-12(8-6-11)17-9-10-3-1-2-4-13(10)14(17)16/h1-8,16H,9H2

> <PUBCHEM_IUPAC_INCHIKEY>
XKBBOGGDIBYKSF-UHFFFAOYSA-N

> <PUBCHEM_XLOGP3>
3.5

> <PUBCHEM_EXACT_MASS>
333.996696

> <PUBCHEM_MOLECULAR_FORMULA>
C14H11IN2

> <PUBCHEM_MOLECULAR_WEIGHT>
334.15501

> <PUBCHEM_OPENEYE_CAN_SMILES>
C1C2=CC=CC=C2C(=N)N1C3=CC=C(C=C3)I

> <PUBCHEM_OPENEYE_ISO_SMILES>
C1C2=CC=CC=C2C(=N)N1C3=CC=C(C=C3)I

> <PUBCHEM_CACTVS_TPSA>
27.1

> <PUBCHEM_MONOISOTOPIC_WEIGHT>
333.996696

> <PUBCHEM_TOTAL_CHARGE>
0

> <PUBCHEM_HEAVY_ATOM_COUNT>
17

> <PUBCHEM_ATOM_DEF_STEREO_COUNT>
0

> <PUBCHEM_ATOM_UDEF_STEREO_COUNT>
0

> <PUBCHEM_BOND_DEF_STEREO_COUNT>
0

> <PUBCHEM_BOND_UDEF_STEREO_COUNT>
0

> <PUBCHEM_ISOTOPIC_ATOM_COUNT>
0

> <PUBCHEM_COMPONENT_COUNT>
1

> <PUBCHEM_CACTVS_TAUTO_COUNT>
1

> <PUBCHEM_COORDINATE_TYPE>
1
5
255

> <PUBCHEM_BONDANNOTATIONS>
10  14  8
11  14  8
12  15  8
13  16  8
15  17  8
16  17  8
5  6  8
5  9  8
6  10  8
8  12  8
8  13  8
9  11  8

$$$$
28833014
  -OEChem-12041211372D

 28 28  0     0  0  0  0  0  0999 V2000
    6.3301    2.4400    0.0000 O   0  0  0  0  0  0  0  0  0  0  0  0
    4.5981    0.4400    0.0000 N   0  3  0  0  0  0  0  0  0  0  0  0
    3.7320   -0.0600    0.0000 C   0  0  0  0  0  0  0  0  0  0  0  0
    5.4641    0.9400    0.0000 C   0  0  0  0  0  0  0  0  0  0  0  0
    3.7320   -1.0600    0.0000 C   0  0  0  0  0  0  0  0  0  0  0  0
    2.8660   -1.5600    0.0000 C   0  0  0  0  0  0  0  0  0  0  0  0
    5.4641    1.9400    0.0000 C   0  0  0  0  0  0  0  0  0  0  0  0
    4.5981   -1.5600    0.0000 C   0  0  0  0  0  0  0  0  0  0  0  0
    2.8660   -2.5600    0.0000 C   0  0  0  0  0  0  0  0  0  0  0  0
    4.5981   -2.5600    0.0000 C   0  0  0  0  0  0  0  0  0  0  0  0
    3.7320   -3.0600    0.0000 C   0  0  0  0  0  0  0  0  0  0  0  0
    2.0000   -3.0600    0.0000 C   0  0  0  0  0  0  0  0  0  0  0  0
    4.2881    0.9769    0.0000 H   0  0  0  0  0  0  0  0  0  0  0  0
    4.9081   -0.0969    0.0000 H   0  0  0  0  0  0  0  0  0  0  0  0
    3.5200    0.5226    0.0000 H   0  0  0  0  0  0  0  0  0  0  0  0
    3.1215   -0.1677    0.0000 H   0  0  0  0  0  0  0  0  0  0  0  0
    5.6762    0.3574    0.0000 H   0  0  0  0  0  0  0  0  0  0  0  0
    6.0747    1.0477    0.0000 H   0  0  0  0  0  0  0  0  0  0  0  0
    2.3291   -1.2500    0.0000 H   0  0  0  0  0  0  0  0  0  0  0  0
    5.2520    2.5226    0.0000 H   0  0  0  0  0  0  0  0  0  0  0  0
    4.8535    1.8323    0.0000 H   0  0  0  0  0  0  0  0  0  0  0  0
    5.1350   -1.2500    0.0000 H   0  0  0  0  0  0  0  0  0  0  0  0
    5.1350   -2.8700    0.0000 H   0  0  0  0  0  0  0  0  0  0  0  0
    3.7320   -3.6800    0.0000 H   0  0  0  0  0  0  0  0  0  0  0  0
    1.6900   -2.5231    0.0000 H   0  0  0  0  0  0  0  0  0  0  0  0
    1.4631   -3.3700    0.0000 H   0  0  0  0  0  0  0  0  0  0  0  0
    2.3100   -3.5969    0.0000 H   0  0  0  0  0  0  0  0  0  0  0  0
    6.3301    3.0600    0.0000 H   0  0  0  0  0  0  0  0  0  0  0  0
  1  7  1  0  0  0  0
  1 28  1  0  0  0  0
  2  3  1  0  0  0  0
  2  4  1  0  0  0  0
  2 13  1  0  0  0  0
  2 14  1  0  0  0  0
  3  5  1  0  0  0  0
  3 15  1  0  0  0  0
  3 16  1  0  0  0  0
  4  7  1  0  0  0  0
  4 17  1  0  0  0  0
  4 18  1  0  0  0  0
  5  6  1  0  0  0  0
  5  8  2  0  0  0  0
  6  9  2  0  0  0  0
  6 19  1  0  0  0  0
  7 20  1  0  0  0  0
  7 21  1  0  0  0  0
  8 10  1  0  0  0  0
  8 22  1  0  0  0  0
  9 11  1  0  0  0  0
  9 12  1  0  0  0  0
 10 11  2  0  0  0  0
 10 23  1  0  0  0  0
 11 24  1  0  0  0  0
 12 25  1  0  0  0  0
 12 26  1  0  0  0  0
 12 27  1  0  0  0  0
M  CHG  1   2   1
M  END
> <PUBCHEM_COMPOUND_CID>
28833014

> <PUBCHEM_COMPOUND_CANONICALIZED>
1

> <PUBCHEM_CACTVS_COMPLEXITY>
116

> <PUBCHEM_CACTVS_HBOND_ACCEPTOR>
1

> <PUBCHEM_CACTVS_HBOND_DONOR>
2

> <PUBCHEM_CACTVS_ROTATABLE_BOND>
4

> <PUBCHEM_CACTVS_SUBSKEYS>
AAADceByIAAAAAAAAAAAAAAAAAAAAAAAAAAwAAAAAAAAAAABAAAAHgAQCAAADADhmAYyAILAAgCAAiBCAACCAAAgAAAIiIAIBIgKMCKAkRGEIAhgkACYiAcQgEAOAAACAAAAAAAAAAQAAAAAAAAAAAAAAA==

> <PUBCHEM_IUPAC_OPENEYE_NAME>
2-hydroxyethyl(m-tolylmethyl)ammonium

> <PUBCHEM_IUPAC_CAS_NAME>
2-hydroxyethyl-[(3-methylphenyl)methyl]ammonium

> <PUBCHEM_IUPAC_NAME>
2-hydroxyethyl-[(3-methylphenyl)methyl]azanium

> <PUBCHEM_IUPAC_SYSTEMATIC_NAME>
2-hydroxyethyl-[(3-methylphenyl)methyl]azanium

> <PUBCHEM_IUPAC_TRADITIONAL_NAME>
2-hydroxyethyl-(3-methylbenzyl)ammonium

> <PUBCHEM_IUPAC_INCHI>
InChI=1S/C10H15NO/c1-9-3-2-4-10(7-9)8-11-5-6-12/h2-4,7,11-12H,5-6,8H2,1H3/p+1

> <PUBCHEM_IUPAC_INCHIKEY>
YORIPKCDWWMGQR-UHFFFAOYSA-O

> <PUBCHEM_XLOGP3>
1.2

> <PUBCHEM_EXACT_MASS>
166.123189

> <PUBCHEM_MOLECULAR_FORMULA>
C10H16NO+

> <PUBCHEM_MOLECULAR_WEIGHT>
166.24014

> <PUBCHEM_OPENEYE_CAN_SMILES>
CC1=CC(=CC=C1)C[NH2+]CCO

> <PUBCHEM_OPENEYE_ISO_SMILES>
CC1=CC(=CC=C1)C[NH2+]CCO

> <PUBCHEM_CACTVS_TPSA>
36.8

> <PUBCHEM_MONOISOTOPIC_WEIGHT>
166.123189

> <PUBCHEM_TOTAL_CHARGE>
1

> <PUBCHEM_HEAVY_ATOM_COUNT>
12

> <PUBCHEM_ATOM_DEF_STEREO_COUNT>
0

> <PUBCHEM_ATOM_UDEF_STEREO_COUNT>
0

> <PUBCHEM_BOND_DEF_STEREO_COUNT>
0

> <PUBCHEM_BOND_UDEF_STEREO_COUNT>
0

> <PUBCHEM_ISOTOPIC_ATOM_COUNT>
0

> <PUBCHEM_COMPONENT_COUNT>
1

> <PUBCHEM_CACTVS_TAUTO_COUNT>
1

> <PUBCHEM_COORDINATE_TYPE>
1
5
255

> <PUBCHEM_BONDANNOTATIONS>
10  11  8
5  6  8
5  8  8
6  9  8
8  10  8
9  11  8

$$$$
28838312
  -OEChem-12041211372D

 45 45  0     1  0  0  0  0  0999 V2000
    4.5981   -1.0000    0.0000 O   0  0  0  0  0  0  0  0  0  0  0  0
    4.5981    2.0000    0.0000 O   0  0  0  0  0  0  0  0  0  0  0  0
    6.3301    1.0000    0.0000 O   0  0  0  0  0  0  0  0  0  0  0  0
    2.8660   -1.0000    0.0000 O   0  0  0  0  0  0  0  0  0  0  0  0
    6.3301   -2.0000    0.0000 O   0  0  0  0  0  0  0  0  0  0  0  0
    6.3301    2.0000    0.0000 O   0  0  0  0  0  0  0  0  0  0  0  0
    7.1962   -0.5000    0.0000 O   0  0  0  0  0  0  0  0  0  0  0  0
    3.7320   -2.5000    0.0000 O   0  0  0  0  0  0  0  0  0  0  0  0
    8.0622   -2.0000    0.0000 O   0  0  0  0  0  0  0  0  0  0  0  0
    2.8660    1.0000    0.0000 N   0  0  0  0  0  0  0  0  0  0  0  0
    4.5981    1.0000    0.0000 C   0  0  1  0  0  0  0  0  0  0  0  0
    5.4641    0.5000    0.0000 C   0  0  1  0  0  0  0  0  0  0  0  0
    3.7320    0.5000    0.0000 C   0  0  1  0  0  0  0  0  0  0  0  0
    5.4641   -0.5000    0.0000 C   0  0  1  0  0  0  0  0  0  0  0  0
    3.7320   -0.5000    0.0000 C   0  0  2  0  0  0  0  0  0  0  0  0
    6.3301   -1.0000    0.0000 C   0  0  0  0  0  0  0  0  0  0  0  0
    5.4641    2.5000    0.0000 C   0  0  0  0  0  0  0  0  0  0  0  0
    7.1962    0.5000    0.0000 C   0  0  0  0  0  0  0  0  0  0  0  0
    2.8660   -2.0000    0.0000 C   0  0  0  0  0  0  0  0  0  0  0  0
    5.4641    3.5000    0.0000 C   0  0  0  0  0  0  0  0  0  0  0  0
    8.0622    1.0000    0.0000 C   0  0  0  0  0  0  0  0  0  0  0  0
    7.1962   -2.5000    0.0000 C   0  0  0  0  0  0  0  0  0  0  0  0
    2.0000   -2.5000    0.0000 C   0  0  0  0  0  0  0  0  0  0  0  0
    7.1962   -3.5000    0.0000 C   0  0  0  0  0  0  0  0  0  0  0  0
    5.1350    1.3100    0.0000 H   0  0  0  0  0  0  0  0  0  0  0  0
    5.4641    1.1200    0.0000 H   0  0  0  0  0  0  0  0  0  0  0  0
    3.7320    1.1200    0.0000 H   0  0  0  0  0  0  0  0  0  0  0  0
    5.4641   -1.1200    0.0000 H   0  0  0  0  0  0  0  0  0  0  0  0
    3.7320   -1.1200    0.0000 H   0  0  0  0  0  0  0  0  0  0  0  0
    6.9407   -1.1077    0.0000 H   0  0  0  0  0  0  0  0  0  0  0  0
    6.5422   -0.4174    0.0000 H   0  0  0  0  0  0  0  0  0  0  0  0
    2.3291    0.6900    0.0000 H   0  0  0  0  0  0  0  0  0  0  0  0
    2.8660    1.6200    0.0000 H   0  0  0  0  0  0  0  0  0  0  0  0
    6.0841    3.5000    0.0000 H   0  0  0  0  0  0  0  0  0  0  0  0
    5.4641    4.1200    0.0000 H   0  0  0  0  0  0  0  0  0  0  0  0
    4.8441    3.5000    0.0000 H   0  0  0  0  0  0  0  0  0  0  0  0
    8.3722    0.4631    0.0000 H   0  0  0  0  0  0  0  0  0  0  0  0
    8.5991    1.3100    0.0000 H   0  0  0  0  0  0  0  0  0  0  0  0
    7.7522    1.5369    0.0000 H   0  0  0  0  0  0  0  0  0  0  0  0
    1.6900   -1.9631    0.0000 H   0  0  0  0  0  0  0  0  0  0  0  0
    1.4631   -2.8100    0.0000 H   0  0  0  0  0  0  0  0  0  0  0  0
    2.3100   -3.0369    0.0000 H   0  0  0  0  0  0  0  0  0  0  0  0
    6.5762   -3.5000    0.0000 H   0  0  0  0  0  0  0  0  0  0  0  0
    7.1962   -4.1200    0.0000 H   0  0  0  0  0  0  0  0  0  0  0  0
    7.8162   -3.5000    0.0000 H   0  0  0  0  0  0  0  0  0  0  0  0
  1 14  1  0  0  0  0
  1 15  1  0  0  0  0
 11  2  1  1  0  0  0
  2 17  1  0  0  0  0
 12  3  1  6  0  0  0
  3 18  1  0  0  0  0
 15  4  1  6  0  0  0
  4 19  1  0  0  0  0
  5 16  1  0  0  0  0
  5 22  1  0  0  0  0
  6 17  2  0  0  0  0
  7 18  2  0  0  0  0
  8 19  2  0  0  0  0
  9 22  2  0  0  0  0
 13 10  1  1  0  0  0
 10 32  1  0  0  0  0
 10 33  1  0  0  0  0
 11 12  1  0  0  0  0
 11 13  1  0  0  0  0
 11 25  1  0  0  0  0
 12 14  1  0  0  0  0
 12 26  1  0  0  0  0
 13 15  1  0  0  0  0
 13 27  1  0  0  0  0
 14 16  1  1  0  0  0
 14 28  1  0  0  0  0
 15 29  1  0  0  0  0
 16 30  1  0  0  0  0
 16 31  1  0  0  0  0
 17 20  1  0  0  0  0
 18 21  1  0  0  0  0
 19 23  1  0  0  0  0
 20 34  1  0  0  0  0
 20 35  1  0  0  0  0
 20 36  1  0  0  0  0
 21 37  1  0  0  0  0
 21 38  1  0  0  0  0
 21 39  1  0  0  0  0
 22 24  1  0  0  0  0
 23 40  1  0  0  0  0
 23 41  1  0  0  0  0
 23 42  1  0  0  0  0
 24 43  1  0  0  0  0
 24 44  1  0  0  0  0
 24 45  1  0  0  0  0
M  END
> <PUBCHEM_COMPOUND_CID>
28838312

> <PUBCHEM_COMPOUND_CANONICALIZED>
1

> <PUBCHEM_CACTVS_COMPLEXITY>
507

> <PUBCHEM_CACTVS_HBOND_ACCEPTOR>
10

> <PUBCHEM_CACTVS_HBOND_DONOR>
1

> <PUBCHEM_CACTVS_ROTATABLE_BOND>
9

> <PUBCHEM_CACTVS_SUBSKEYS>
AAADceByPAAAAAAAAAAAAAAAAAAAAAAAAAAkAAAAAAAAAAAAAAAAHgAQAAAACDzxgAcCCABABAAIAACQCAAAAAAAAAAAAIAAAAATAAIAgAAjAAAHEAAGAAHwcA0AAAAAAAAAAAAAAAAAAAAAAAAAAAAAAA==

> <PUBCHEM_IUPAC_OPENEYE_NAME>
[(2R,3S,4R,5S,6R)-3,4,6-triacetoxy-5-amino-tetrahydropyran-2-yl]methyl acetate

> <PUBCHEM_IUPAC_CAS_NAME>
acetic acid [(2R,3S,4R,5S,6R)-3,4,6-triacetyloxy-5-amino-2-oxanyl]methyl ester

> <PUBCHEM_IUPAC_NAME>
[(2R,3S,4R,5S,6R)-3,4,6-triacetyloxy-5-aminooxan-2-yl]methyl acetate

> <PUBCHEM_IUPAC_SYSTEMATIC_NAME>
[(2R,3S,4R,5S,6R)-3,4,6-triacetyloxy-5-azanyl-oxan-2-yl]methyl ethanoate

> <PUBCHEM_IUPAC_TRADITIONAL_NAME>
acetic acid [(2R,3S,4R,5S,6R)-3,4,6-triacetoxy-5-amino-tetrahydropyran-2-yl]methyl ester

> <PUBCHEM_IUPAC_INCHI>
InChI=1S/C14H21NO9/c1-6(16)20-5-10-12(21-7(2)17)13(22-8(3)18)11(15)14(24-10)23-9(4)19/h10-14H,5,15H2,1-4H3/t10-,11+,12-,13-,14+/m1/s1

> <PUBCHEM_IUPAC_INCHIKEY>
ZRAWPYYLRZSVEU-ITGHMWBKSA-N

> <PUBCHEM_XLOGP3>
-0.2

> <PUBCHEM_EXACT_MASS>
347.121631

> <PUBCHEM_MOLECULAR_FORMULA>
C14H21NO9

> <PUBCHEM_MOLECULAR_WEIGHT>
347.31784

> <PUBCHEM_OPENEYE_CAN_SMILES>
CC(=O)OCC1C(C(C(C(O1)OC(=O)C)N)OC(=O)C)OC(=O)C

> <PUBCHEM_OPENEYE_ISO_SMILES>
CC(=O)OC[C@@H]1[C@H]([C@@H]([C@@H]([C@H](O1)OC(=O)C)N)OC(=O)C)OC(=O)C

> <PUBCHEM_CACTVS_TPSA>
140

> <PUBCHEM_MONOISOTOPIC_WEIGHT>
347.121631

> <PUBCHEM_TOTAL_CHARGE>
0

> <PUBCHEM_HEAVY_ATOM_COUNT>
24

> <PUBCHEM_ATOM_DEF_STEREO_COUNT>
5

> <PUBCHEM_ATOM_UDEF_STEREO_COUNT>
0

> <PUBCHEM_BOND_DEF_STEREO_COUNT>
0

> <PUBCHEM_BOND_UDEF_STEREO_COUNT>
0

> <PUBCHEM_ISOTOPIC_ATOM_COUNT>
0

> <PUBCHEM_COMPONENT_COUNT>
1

> <PUBCHEM_CACTVS_TAUTO_COUNT>
1

> <PUBCHEM_COORDINATE_TYPE>
1
5
255

> <PUBCHEM_BONDANNOTATIONS>
13  10  5
14  16  5
11  2  5
12  3  6
15  4  6

$$$$
