27473629
  -OEChem-12041211322D

 47 48  0     0  0  0  0  0  0999 V2000
    6.3301    0.0670    0.0000 O   0  0  0  0  0  0  0  0  0  0  0  0
    6.3301    2.0670    0.0000 N   0  3  0  0  0  0  0  0  0  0  0  0
    4.5981    0.0670    0.0000 N   0  0  0  0  0  0  0  0  0  0  0  0
    6.8301    1.2010    0.0000 C   0  0  0  0  0  0  0  0  0  0  0  0
    6.8301    2.9330    0.0000 C   0  0  0  0  0  0  0  0  0  0  0  0
    7.8301    1.2010    0.0000 C   0  0  0  0  0  0  0  0  0  0  0  0
    7.8301    2.9330    0.0000 C   0  0  0  0  0  0  0  0  0  0  0  0
    8.3301    2.0670    0.0000 C   0  0  0  0  0  0  0  0  0  0  0  0
    5.4641    1.5670    0.0000 C   0  0  0  0  0  0  0  0  0  0  0  0
    5.4641    0.5670    0.0000 C   0  0  0  0  0  0  0  0  0  0  0  0
    4.5981   -0.9330    0.0000 C   0  0  0  0  0  0  0  0  0  0  0  0
    3.7320   -1.4330    0.0000 C   0  0  0  0  0  0  0  0  0  0  0  0
    5.4641   -1.4330    0.0000 C   0  0  0  0  0  0  0  0  0  0  0  0
    2.8660   -0.9330    0.0000 C   0  0  0  0  0  0  0  0  0  0  0  0
    6.3301   -0.9330    0.0000 C   0  0  0  0  0  0  0  0  0  0  0  0
    3.7320   -2.4330    0.0000 C   0  0  0  0  0  0  0  0  0  0  0  0
    5.4641   -2.4330    0.0000 C   0  0  0  0  0  0  0  0  0  0  0  0
    4.5981   -2.9330    0.0000 C   0  0  0  0  0  0  0  0  0  0  0  0
    2.0000   -1.4330    0.0000 C   0  0  0  0  0  0  0  0  0  0  0  0
    7.1962   -1.4330    0.0000 C   0  0  0  0  0  0  0  0  0  0  0  0
    5.4641    2.5670    0.0000 H   0  0  0  0  0  0  0  0  0  0  0  0
    6.9378    3.5436    0.0000 H   0  0  0  0  0  0  0  0  0  0  0  0
    6.2475    3.1451    0.0000 H   0  0  0  0  0  0  0  0  0  0  0  0
    6.2475    0.9889    0.0000 H   0  0  0  0  0  0  0  0  0  0  0  0
    6.9378    0.5904    0.0000 H   0  0  0  0  0  0  0  0  0  0  0  0
    8.4127    3.1451    0.0000 H   0  0  0  0  0  0  0  0  0  0  0  0
    7.7225    3.5436    0.0000 H   0  0  0  0  0  0  0  0  0  0  0  0
    7.7225    0.5904    0.0000 H   0  0  0  0  0  0  0  0  0  0  0  0
    8.4127    0.9889    0.0000 H   0  0  0  0  0  0  0  0  0  0  0  0
    8.8051    1.6685    0.0000 H   0  0  0  0  0  0  0  0  0  0  0  0
    8.8051    2.4655    0.0000 H   0  0  0  0  0  0  0  0  0  0  0  0
    5.2520    2.1496    0.0000 H   0  0  0  0  0  0  0  0  0  0  0  0
    4.8535    1.4593    0.0000 H   0  0  0  0  0  0  0  0  0  0  0  0
    4.0611    0.3770    0.0000 H   0  0  0  0  0  0  0  0  0  0  0  0
    3.2646   -0.4581    0.0000 H   0  0  0  0  0  0  0  0  0  0  0  0
    2.4675   -0.4581    0.0000 H   0  0  0  0  0  0  0  0  0  0  0  0
    6.7287   -0.4581    0.0000 H   0  0  0  0  0  0  0  0  0  0  0  0
    5.9316   -0.4581    0.0000 H   0  0  0  0  0  0  0  0  0  0  0  0
    3.1951   -2.7430    0.0000 H   0  0  0  0  0  0  0  0  0  0  0  0
    6.0010   -2.7430    0.0000 H   0  0  0  0  0  0  0  0  0  0  0  0
    4.5981   -3.5530    0.0000 H   0  0  0  0  0  0  0  0  0  0  0  0
    1.6900   -0.8961    0.0000 H   0  0  0  0  0  0  0  0  0  0  0  0
    1.4631   -1.7430    0.0000 H   0  0  0  0  0  0  0  0  0  0  0  0
    2.3100   -1.9700    0.0000 H   0  0  0  0  0  0  0  0  0  0  0  0
    6.8862   -1.9700    0.0000 H   0  0  0  0  0  0  0  0  0  0  0  0
    7.7331   -1.7430    0.0000 H   0  0  0  0  0  0  0  0  0  0  0  0
    7.5062   -0.8961    0.0000 H   0  0  0  0  0  0  0  0  0  0  0  0
  1 10  2  0  0  0  0
  2  4  1  0  0  0  0
  2  5  1  0  0  0  0
  2  9  1  0  0  0  0
  2 21  1  0  0  0  0
  3 10  1  0  0  0  0
  3 11  1  0  0  0  0
  3 34  1  0  0  0  0
  4  6  1  0  0  0  0
  4 24  1  0  0  0  0
  4 25  1  0  0  0  0
  5  7  1  0  0  0  0
  5 22  1  0  0  0  0
  5 23  1  0  0  0  0
  6  8  1  0  0  0  0
  6 28  1  0  0  0  0
  6 29  1  0  0  0  0
  7  8  1  0  0  0  0
  7 26  1  0  0  0  0
  7 27  1  0  0  0  0
  8 30  1  0  0  0  0
  8 31  1  0  0  0  0
  9 10  1  0  0  0  0
  9 32  1  0  0  0  0
  9 33  1  0  0  0  0
 11 12  2  0  0  0  0
 11 13  1  0  0  0  0
 12 14  1  0  0  0  0
 12 16  1  0  0  0  0
 13 15  1  0  0  0  0
 13 17  2  0  0  0  0
 14 19  1  0  0  0  0
 14 35  1  0  0  0  0
 14 36  1  0  0  0  0
 15 20  1  0  0  0  0
 15 37  1  0  0  0  0
 15 38  1  0  0  0  0
 16 18  2  0  0  0  0
 16 39  1  0  0  0  0
 17 18  1  0  0  0  0
 17 40  1  0  0  0  0
 18 41  1  0  0  0  0
 19 42  1  0  0  0  0
 19 43  1  0  0  0  0
 19 44  1  0  0  0  0
 20 45  1  0  0  0  0
 20 46  1  0  0  0  0
 20 47  1  0  0  0  0
M  CHG  1   2   1
M  END
> <PUBCHEM_COMPOUND_CID>
27473629

> <PUBCHEM_COMPOUND_CANONICALIZED>
1

> <PUBCHEM_CACTVS_COMPLEXITY>
287

> <PUBCHEM_CACTVS_HBOND_ACCEPTOR>
1

> <PUBCHEM_CACTVS_HBOND_DONOR>
2

> <PUBCHEM_CACTVS_ROTATABLE_BOND>
5

> <PUBCHEM_CACTVS_SUBSKEYS>
AAADceB7IAAAAAAAAAAAAAAAAAAAAAAAAAA8QAAAAAAAAAABAAAAHgAQAAAADAjBmAQywIPAAACIAiVSUACCAAAhAAAIiICIRIgIYCLAkbGUIAhglADIyAcQgMAOAAACAAACAAAAAAQAAAQAAAAAAAAAAA==

> <PUBCHEM_IUPAC_OPENEYE_NAME>
N-(2,6-diethylphenyl)-2-piperidin-1-ium-1-yl-acetamide

> <PUBCHEM_IUPAC_CAS_NAME>
N-(2,6-diethylphenyl)-2-(1-piperidin-1-iumyl)acetamide

> <PUBCHEM_IUPAC_NAME>
N-(2,6-diethylphenyl)-2-piperidin-1-ium-1-ylacetamide

> <PUBCHEM_IUPAC_SYSTEMATIC_NAME>
N-(2,6-diethylphenyl)-2-piperidin-1-ium-1-yl-ethanamide

> <PUBCHEM_IUPAC_TRADITIONAL_NAME>
N-(2,6-diethylphenyl)-2-piperidin-1-ium-1-yl-acetamide

> <PUBCHEM_IUPAC_INCHI>
InChI=1S/C17H26N2O/c1-3-14-9-8-10-15(4-2)17(14)18-16(20)13-19-11-6-5-7-12-19/h8-10H,3-7,11-13H2,1-2H3,(H,18,20)/p+1

> <PUBCHEM_IUPAC_INCHIKEY>
XTLICUSUTIHYLL-UHFFFAOYSA-O

> <PUBCHEM_XLOGP3>
2.8

> <PUBCHEM_EXACT_MASS>
275.212338

> <PUBCHEM_MOLECULAR_FORMULA>
C17H27N2O+

> <PUBCHEM_MOLECULAR_WEIGHT>
275.40908

> <PUBCHEM_OPENEYE_CAN_SMILES>
CCC1=C(C(=CC=C1)CC)NC(=O)C[NH+]2CCCCC2

> <PUBCHEM_OPENEYE_ISO_SMILES>
CCC1=C(C(=CC=C1)CC)NC(=O)C[NH+]2CCCCC2

> <PUBCHEM_CACTVS_TPSA>
33.5

> <PUBCHEM_MONOISOTOPIC_WEIGHT>
275.212338

> <PUBCHEM_TOTAL_CHARGE>
1

> <PUBCHEM_HEAVY_ATOM_COUNT>
20

> <PUBCHEM_ATOM_DEF_STEREO_COUNT>
0

> <PUBCHEM_ATOM_UDEF_STEREO_COUNT>
0

> <PUBCHEM_BOND_DEF_STEREO_COUNT>
0

> <PUBCHEM_BOND_UDEF_STEREO_COUNT>
0

> <PUBCHEM_ISOTOPIC_ATOM_COUNT>
0

> <PUBCHEM_COMPONENT_COUNT>
1

> <PUBCHEM_CACTVS_TAUTO_COUNT>
3

> <PUBCHEM_COORDINATE_TYPE>
1
5
255

> <PUBCHEM_BONDANNOTATIONS>
11  12  8
11  13  8
12  16  8
13  17  8
16  18  8
17  18  8

$$$$
27473709
  -OEChem-12041211322D

 46 47  0     0  0  0  0  0  0999 V2000
    4.5981    0.6160    0.0000 O   0  0  0  0  0  0  0  0  0  0  0  0
    2.8660   -2.3840    0.0000 N   0  3  0  0  0  0  0  0  0  0  0  0
    2.8660    0.6160    0.0000 N   0  0  0  0  0  0  0  0  0  0  0  0
    3.7320    2.1160    0.0000 N   0  0  0  0  0  0  0  0  0  0  0  0
    2.8660   -0.3840    0.0000 C   0  0  0  0  0  0  0  0  0  0  0  0
    2.0000   -1.8840    0.0000 C   0  0  0  0  0  0  0  0  0  0  0  0
    3.7320   -1.8840    0.0000 C   0  0  0  0  0  0  0  0  0  0  0  0
    3.7320   -0.8840    0.0000 C   0  0  0  0  0  0  0  0  0  0  0  0
    2.0000   -0.8840    0.0000 C   0  0  0  0  0  0  0  0  0  0  0  0
    2.3660   -3.2500    0.0000 C   0  0  0  0  0  0  0  0  0  0  0  0
    2.8660   -4.1160    0.0000 C   0  0  0  0  0  0  0  0  0  0  0  0
    3.7320    1.1160    0.0000 C   0  0  0  0  0  0  0  0  0  0  0  0
    4.5981    2.6160    0.0000 C   0  0  0  0  0  0  0  0  0  0  0  0
    5.4641    2.1160    0.0000 C   0  0  0  0  0  0  0  0  0  0  0  0
    4.5981    3.6160    0.0000 C   0  0  0  0  0  0  0  0  0  0  0  0
    5.4641    1.1160    0.0000 C   0  0  0  0  0  0  0  0  0  0  0  0
    6.3301    2.6160    0.0000 C   0  0  0  0  0  0  0  0  0  0  0  0
    5.4641    4.1160    0.0000 C   0  0  0  0  0  0  0  0  0  0  0  0
    6.3301    3.6160    0.0000 C   0  0  0  0  0  0  0  0  0  0  0  0
    6.3301    0.6160    0.0000 C   0  0  0  0  0  0  0  0  0  0  0  0
    3.1760   -2.9209    0.0000 H   0  0  0  0  0  0  0  0  0  0  0  0
    3.4030   -0.0740    0.0000 H   0  0  0  0  0  0  0  0  0  0  0  0
    1.3894   -1.7763    0.0000 H   0  0  0  0  0  0  0  0  0  0  0  0
    1.7880   -2.4666    0.0000 H   0  0  0  0  0  0  0  0  0  0  0  0
    3.9441   -2.4666    0.0000 H   0  0  0  0  0  0  0  0  0  0  0  0
    4.3426   -1.7763    0.0000 H   0  0  0  0  0  0  0  0  0  0  0  0
    1.7880   -0.3014    0.0000 H   0  0  0  0  0  0  0  0  0  0  0  0
    4.3426   -0.9916    0.0000 H   0  0  0  0  0  0  0  0  0  0  0  0
    3.9441   -0.3014    0.0000 H   0  0  0  0  0  0  0  0  0  0  0  0
    1.3894   -0.9916    0.0000 H   0  0  0  0  0  0  0  0  0  0  0  0
    1.8911   -2.8515    0.0000 H   0  0  0  0  0  0  0  0  0  0  0  0
    1.8911   -3.6485    0.0000 H   0  0  0  0  0  0  0  0  0  0  0  0
    2.3291    0.9260    0.0000 H   0  0  0  0  0  0  0  0  0  0  0  0
    2.3291   -4.4260    0.0000 H   0  0  0  0  0  0  0  0  0  0  0  0
    3.1760   -4.6530    0.0000 H   0  0  0  0  0  0  0  0  0  0  0  0
    3.4030   -3.8060    0.0000 H   0  0  0  0  0  0  0  0  0  0  0  0
    3.1951    2.4260    0.0000 H   0  0  0  0  0  0  0  0  0  0  0  0
    4.8535    1.2237    0.0000 H   0  0  0  0  0  0  0  0  0  0  0  0
    5.2520    0.5334    0.0000 H   0  0  0  0  0  0  0  0  0  0  0  0
    4.0611    3.9260    0.0000 H   0  0  0  0  0  0  0  0  0  0  0  0
    6.8671    2.3060    0.0000 H   0  0  0  0  0  0  0  0  0  0  0  0
    5.4641    4.7360    0.0000 H   0  0  0  0  0  0  0  0  0  0  0  0
    6.8671    3.9260    0.0000 H   0  0  0  0  0  0  0  0  0  0  0  0
    6.0201    0.0791    0.0000 H   0  0  0  0  0  0  0  0  0  0  0  0
    6.8671    0.3060    0.0000 H   0  0  0  0  0  0  0  0  0  0  0  0
    6.6401    1.1530    0.0000 H   0  0  0  0  0  0  0  0  0  0  0  0
  1 12  2  0  0  0  0
  2  6  1  0  0  0  0
  2  7  1  0  0  0  0
  2 10  1  0  0  0  0
  2 21  1  0  0  0  0
  3  5  1  0  0  0  0
  3 12  1  0  0  0  0
  3 33  1  0  0  0  0
  4 12  1  0  0  0  0
  4 13  1  0  0  0  0
  4 37  1  0  0  0  0
  5  8  1  0  0  0  0
  5  9  1  0  0  0  0
  5 22  1  0  0  0  0
  6  9  1  0  0  0  0
  6 23  1  0  0  0  0
  6 24  1  0  0  0  0
  7  8  1  0  0  0  0
  7 25  1  0  0  0  0
  7 26  1  0  0  0  0
  8 28  1  0  0  0  0
  8 29  1  0  0  0  0
  9 27  1  0  0  0  0
  9 30  1  0  0  0  0
 10 11  1  0  0  0  0
 10 31  1  0  0  0  0
 10 32  1  0  0  0  0
 11 34  1  0  0  0  0
 11 35  1  0  0  0  0
 11 36  1  0  0  0  0
 13 14  1  0  0  0  0
 13 15  2  0  0  0  0
 14 16  1  0  0  0  0
 14 17  2  0  0  0  0
 15 18  1  0  0  0  0
 15 40  1  0  0  0  0
 16 20  1  0  0  0  0
 16 38  1  0  0  0  0
 16 39  1  0  0  0  0
 17 19  1  0  0  0  0
 17 41  1  0  0  0  0
 18 19  2  0  0  0  0
 18 42  1  0  0  0  0
 19 43  1  0  0  0  0
 20 44  1  0  0  0  0
 20 45  1  0  0  0  0
 20 46  1  0  0  0  0
M  CHG  1   2   1
M  END
> <PUBCHEM_COMPOUND_CID>
27473709

> <PUBCHEM_COMPOUND_CANONICALIZED>
1

> <PUBCHEM_CACTVS_COMPLEXITY>
300

> <PUBCHEM_CACTVS_HBOND_ACCEPTOR>
1

> <PUBCHEM_CACTVS_HBOND_DONOR>
3

> <PUBCHEM_CACTVS_ROTATABLE_BOND>
4

> <PUBCHEM_CACTVS_SUBSKEYS>
AAADceB7IAAAAAAAAAAAAAAAAAAAAAAAAAA8QAAAAAAAAAABAAAAHgAQAAAADCjBGAQzwIPAAACIAiRCUACCAAAhAgAIiIAIZIiIICLA0ZGEIAholgLIyCcQgIAOAAAAAAACAAAAAAAAAAQAAAAAAAAAAA==

> <PUBCHEM_IUPAC_OPENEYE_NAME>
1-(2-ethylphenyl)-3-(1-ethylpiperidin-1-ium-4-yl)urea

> <PUBCHEM_IUPAC_CAS_NAME>
1-(2-ethylphenyl)-3-(1-ethyl-4-piperidin-1-iumyl)urea

> <PUBCHEM_IUPAC_NAME>
1-(2-ethylphenyl)-3-(1-ethylpiperidin-1-ium-4-yl)urea

> <PUBCHEM_IUPAC_SYSTEMATIC_NAME>
1-(2-ethylphenyl)-3-(1-ethylpiperidin-1-ium-4-yl)urea

> <PUBCHEM_IUPAC_TRADITIONAL_NAME>
1-(2-ethylphenyl)-3-(1-ethylpiperidin-1-ium-4-yl)urea

> <PUBCHEM_IUPAC_INCHI>
InChI=1S/C16H25N3O/c1-3-13-7-5-6-8-15(13)18-16(20)17-14-9-11-19(4-2)12-10-14/h5-8,14H,3-4,9-12H2,1-2H3,(H2,17,18,20)/p+1

> <PUBCHEM_IUPAC_INCHIKEY>
LCVKRTUUDYYYGI-UHFFFAOYSA-O

> <PUBCHEM_XLOGP3>
2.1

> <PUBCHEM_EXACT_MASS>
276.207587

> <PUBCHEM_MOLECULAR_FORMULA>
C16H26N3O+

> <PUBCHEM_MOLECULAR_WEIGHT>
276.39714

> <PUBCHEM_OPENEYE_CAN_SMILES>
CCC1=CC=CC=C1NC(=O)NC2CC[NH+](CC2)CC

> <PUBCHEM_OPENEYE_ISO_SMILES>
CCC1=CC=CC=C1NC(=O)NC2CC[NH+](CC2)CC

> <PUBCHEM_CACTVS_TPSA>
45.6

> <PUBCHEM_MONOISOTOPIC_WEIGHT>
276.207587

> <PUBCHEM_TOTAL_CHARGE>
1

> <PUBCHEM_HEAVY_ATOM_COUNT>
20

> <PUBCHEM_ATOM_DEF_STEREO_COUNT>
0

> <PUBCHEM_ATOM_UDEF_STEREO_COUNT>
0

> <PUBCHEM_BOND_DEF_STEREO_COUNT>
0

> <PUBCHEM_BOND_UDEF_STEREO_COUNT>
0

> <PUBCHEM_ISOTOPIC_ATOM_COUNT>
0

> <PUBCHEM_COMPONENT_COUNT>
1

> <PUBCHEM_CACTVS_TAUTO_COUNT>
3

> <PUBCHEM_COORDINATE_TYPE>
1
5
255

> <PUBCHEM_BONDANNOTATIONS>
13  14  8
13  15  8
14  17  8
15  18  8
17  19  8
18  19  8

$$$$
27474768
  -OEChem-12041211322D

 43 44  0     1  0  0  0  0  0999 V2000
    6.3301   -1.5000    0.0000 O   0  0  0  0  0  0  0  0  0  0  0  0
    5.4641    0.0000    0.0000 N   0  0  0  0  0  0  0  0  0  0  0  0
    4.5981   -1.5000    0.0000 N   0  0  0  0  0  0  0  0  0  0  0  0
    6.3301    0.5000    0.0000 C   0  0  2  0  0  0  0  0  0  0  0  0
    6.3301    1.5000    0.0000 C   0  0  0  0  0  0  0  0  0  0  0  0
    7.1962    0.0000    0.0000 C   0  0  0  0  0  0  0  0  0  0  0  0
    3.7320   -3.0000    0.0000 C   0  0  0  0  0  0  0  0  0  0  0  0
    4.5981   -2.5000    0.0000 C   0  0  0  0  0  0  0  0  0  0  0  0
    5.4641    2.0000    0.0000 C   0  0  0  0  0  0  0  0  0  0  0  0
    7.1962    2.0000    0.0000 C   0  0  0  0  0  0  0  0  0  0  0  0
    2.8660   -2.5000    0.0000 C   0  0  0  0  0  0  0  0  0  0  0  0
    5.4641   -1.0000    0.0000 C   0  0  0  0  0  0  0  0  0  0  0  0
    6.3301    3.5000    0.0000 C   0  0  0  0  0  0  0  0  0  0  0  0
    5.4641    3.0000    0.0000 C   0  0  0  0  0  0  0  0  0  0  0  0
    7.1962    3.0000    0.0000 C   0  0  0  0  0  0  0  0  0  0  0  0
    3.7320   -4.0000    0.0000 C   0  0  0  0  0  0  0  0  0  0  0  0
    5.4641   -3.0000    0.0000 C   0  0  0  0  0  0  0  0  0  0  0  0
    2.0000   -3.0000    0.0000 C   0  0  0  0  0  0  0  0  0  0  0  0
    4.5981   -4.5000    0.0000 C   0  0  0  0  0  0  0  0  0  0  0  0
    5.4641   -4.0000    0.0000 C   0  0  0  0  0  0  0  0  0  0  0  0
    6.3301    4.5000    0.0000 C   0  0  0  0  0  0  0  0  0  0  0  0
    5.7932    0.8100    0.0000 H   0  0  0  0  0  0  0  0  0  0  0  0
    4.9272    0.3100    0.0000 H   0  0  0  0  0  0  0  0  0  0  0  0
    6.8862   -0.5369    0.0000 H   0  0  0  0  0  0  0  0  0  0  0  0
    7.7331   -0.3100    0.0000 H   0  0  0  0  0  0  0  0  0  0  0  0
    7.5062    0.5369    0.0000 H   0  0  0  0  0  0  0  0  0  0  0  0
    4.9272    1.6900    0.0000 H   0  0  0  0  0  0  0  0  0  0  0  0
    7.7331    1.6900    0.0000 H   0  0  0  0  0  0  0  0  0  0  0  0
    3.2646   -2.0250    0.0000 H   0  0  0  0  0  0  0  0  0  0  0  0
    2.4675   -2.0250    0.0000 H   0  0  0  0  0  0  0  0  0  0  0  0
    4.0611   -1.1900    0.0000 H   0  0  0  0  0  0  0  0  0  0  0  0
    4.9272    3.3100    0.0000 H   0  0  0  0  0  0  0  0  0  0  0  0
    7.7331    3.3100    0.0000 H   0  0  0  0  0  0  0  0  0  0  0  0
    3.1951   -4.3100    0.0000 H   0  0  0  0  0  0  0  0  0  0  0  0
    6.0010   -2.6900    0.0000 H   0  0  0  0  0  0  0  0  0  0  0  0
    1.6900   -2.4631    0.0000 H   0  0  0  0  0  0  0  0  0  0  0  0
    1.4631   -3.3100    0.0000 H   0  0  0  0  0  0  0  0  0  0  0  0
    2.3100   -3.5369    0.0000 H   0  0  0  0  0  0  0  0  0  0  0  0
    4.5981   -5.1200    0.0000 H   0  0  0  0  0  0  0  0  0  0  0  0
    6.0010   -4.3100    0.0000 H   0  0  0  0  0  0  0  0  0  0  0  0
    6.9501    4.5000    0.0000 H   0  0  0  0  0  0  0  0  0  0  0  0
    6.3301    5.1200    0.0000 H   0  0  0  0  0  0  0  0  0  0  0  0
    5.7101    4.5000    0.0000 H   0  0  0  0  0  0  0  0  0  0  0  0
  1 12  2  0  0  0  0
  4  2  1  6  0  0  0
  2 12  1  0  0  0  0
  2 23  1  0  0  0  0
  3  8  1  0  0  0  0
  3 12  1  0  0  0  0
  3 31  1  0  0  0  0
  4  5  1  0  0  0  0
  4  6  1  0  0  0  0
  4 22  1  0  0  0  0
  5  9  2  0  0  0  0
  5 10  1  0  0  0  0
  6 24  1  0  0  0  0
  6 25  1  0  0  0  0
  6 26  1  0  0  0  0
  7  8  1  0  0  0  0
  7 11  1  0  0  0  0
  7 16  2  0  0  0  0
  8 17  2  0  0  0  0
  9 14  1  0  0  0  0
  9 27  1  0  0  0  0
 10 15  2  0  0  0  0
 10 28  1  0  0  0  0
 11 18  1  0  0  0  0
 11 29  1  0  0  0  0
 11 30  1  0  0  0  0
 13 14  2  0  0  0  0
 13 15  1  0  0  0  0
 13 21  1  0  0  0  0
 14 32  1  0  0  0  0
 15 33  1  0  0  0  0
 16 19  1  0  0  0  0
 16 34  1  0  0  0  0
 17 20  1  0  0  0  0
 17 35  1  0  0  0  0
 18 36  1  0  0  0  0
 18 37  1  0  0  0  0
 18 38  1  0  0  0  0
 19 20  2  0  0  0  0
 19 39  1  0  0  0  0
 20 40  1  0  0  0  0
 21 41  1  0  0  0  0
 21 42  1  0  0  0  0
 21 43  1  0  0  0  0
M  END
> <PUBCHEM_COMPOUND_CID>
27474768

> <PUBCHEM_COMPOUND_CANONICALIZED>
1

> <PUBCHEM_CACTVS_COMPLEXITY>
323

> <PUBCHEM_CACTVS_HBOND_ACCEPTOR>
1

> <PUBCHEM_CACTVS_HBOND_DONOR>
2

> <PUBCHEM_CACTVS_ROTATABLE_BOND>
4

> <PUBCHEM_CACTVS_SUBSKEYS>
AAADceB7IAAAAAAAAAAAAAAAAAAAAAAAAAAwYAAAAAAAAAABQAAAHgAQAAAADCjBGAQzwILAAACIAiRCUACCAAAhAgAIiIAIZIiIICLAkZGEIAholgJIyCcQgMAOQAAAAAACAACAAAAAAAQAAAAAAAAAAA==

> <PUBCHEM_IUPAC_OPENEYE_NAME>
1-(2-ethylphenyl)-3-[(1S)-1-(p-tolyl)ethyl]urea

> <PUBCHEM_IUPAC_CAS_NAME>
1-(2-ethylphenyl)-3-[(1S)-1-(4-methylphenyl)ethyl]urea

> <PUBCHEM_IUPAC_NAME>
1-(2-ethylphenyl)-3-[(1S)-1-(4-methylphenyl)ethyl]urea

> <PUBCHEM_IUPAC_SYSTEMATIC_NAME>
1-(2-ethylphenyl)-3-[(1S)-1-(4-methylphenyl)ethyl]urea

> <PUBCHEM_IUPAC_TRADITIONAL_NAME>
1-(2-ethylphenyl)-3-[(1S)-1-(p-tolyl)ethyl]urea

> <PUBCHEM_IUPAC_INCHI>
InChI=1S/C18H22N2O/c1-4-15-7-5-6-8-17(15)20-18(21)19-14(3)16-11-9-13(2)10-12-16/h5-12,14H,4H2,1-3H3,(H2,19,20,21)/t14-/m0/s1

> <PUBCHEM_IUPAC_INCHIKEY>
YHEAOBBMRPABMX-AWEZNQCLSA-N

> <PUBCHEM_XLOGP3>
3.4

> <PUBCHEM_EXACT_MASS>
282.173213

> <PUBCHEM_MOLECULAR_FORMULA>
C18H22N2O

> <PUBCHEM_MOLECULAR_WEIGHT>
282.38008

> <PUBCHEM_OPENEYE_CAN_SMILES>
CCC1=CC=CC=C1NC(=O)NC(C)C2=CC=C(C=C2)C

> <PUBCHEM_OPENEYE_ISO_SMILES>
CCC1=CC=CC=C1NC(=O)N[C@@H](C)C2=CC=C(C=C2)C

> <PUBCHEM_CACTVS_TPSA>
41.1

> <PUBCHEM_MONOISOTOPIC_WEIGHT>
282.173213

> <PUBCHEM_TOTAL_CHARGE>
0

> <PUBCHEM_HEAVY_ATOM_COUNT>
21

> <PUBCHEM_ATOM_DEF_STEREO_COUNT>
1

> <PUBCHEM_ATOM_UDEF_STEREO_COUNT>
0

> <PUBCHEM_BOND_DEF_STEREO_COUNT>
0

> <PUBCHEM_BOND_UDEF_STEREO_COUNT>
0

> <PUBCHEM_ISOTOPIC_ATOM_COUNT>
0

> <PUBCHEM_COMPONENT_COUNT>
1

> <PUBCHEM_CACTVS_TAUTO_COUNT>
3

> <PUBCHEM_COORDINATE_TYPE>
1
5
255

> <PUBCHEM_BONDANNOTATIONS>
10  15  8
13  14  8
13  15  8
16  19  8
17  20  8
19  20  8
4  2  6
5  10  8
5  9  8
7  16  8
7  8  8
8  17  8
9  14  8

$$$$
27474771
  -OEChem-12041211322D

 43 44  0     1  0  0  0  0  0999 V2000
    6.3301   -1.5000    0.0000 O   0  0  0  0  0  0  0  0  0  0  0  0
    5.4641    0.0000    0.0000 N   0  0  0  0  0  0  0  0  0  0  0  0
    4.5981   -1.5000    0.0000 N   0  0  0  0  0  0  0  0  0  0  0  0
    6.3301    0.5000    0.0000 C   0  0  1  0  0  0  0  0  0  0  0  0
    6.3301    1.5000    0.0000 C   0  0  0  0  0  0  0  0  0  0  0  0
    7.1962    0.0000    0.0000 C   0  0  0  0  0  0  0  0  0  0  0  0
    3.7320   -3.0000    0.0000 C   0  0  0  0  0  0  0  0  0  0  0  0
    4.5981   -2.5000    0.0000 C   0  0  0  0  0  0  0  0  0  0  0  0
    5.4641    2.0000    0.0000 C   0  0  0  0  0  0  0  0  0  0  0  0
    7.1962    2.0000    0.0000 C   0  0  0  0  0  0  0  0  0  0  0  0
    2.8660   -2.5000    0.0000 C   0  0  0  0  0  0  0  0  0  0  0  0
    5.4641   -1.0000    0.0000 C   0  0  0  0  0  0  0  0  0  0  0  0
    6.3301    3.5000    0.0000 C   0  0  0  0  0  0  0  0  0  0  0  0
    5.4641    3.0000    0.0000 C   0  0  0  0  0  0  0  0  0  0  0  0
    7.1962    3.0000    0.0000 C   0  0  0  0  0  0  0  0  0  0  0  0
    3.7320   -4.0000    0.0000 C   0  0  0  0  0  0  0  0  0  0  0  0
    5.4641   -3.0000    0.0000 C   0  0  0  0  0  0  0  0  0  0  0  0
    2.0000   -3.0000    0.0000 C   0  0  0  0  0  0  0  0  0  0  0  0
    4.5981   -4.5000    0.0000 C   0  0  0  0  0  0  0  0  0  0  0  0
    5.4641   -4.0000    0.0000 C   0  0  0  0  0  0  0  0  0  0  0  0
    6.3301    4.5000    0.0000 C   0  0  0  0  0  0  0  0  0  0  0  0
    5.7932    0.8100    0.0000 H   0  0  0  0  0  0  0  0  0  0  0  0
    4.9272    0.3100    0.0000 H   0  0  0  0  0  0  0  0  0  0  0  0
    6.8862   -0.5369    0.0000 H   0  0  0  0  0  0  0  0  0  0  0  0
    7.7331   -0.3100    0.0000 H   0  0  0  0  0  0  0  0  0  0  0  0
    7.5062    0.5369    0.0000 H   0  0  0  0  0  0  0  0  0  0  0  0
    4.9272    1.6900    0.0000 H   0  0  0  0  0  0  0  0  0  0  0  0
    7.7331    1.6900    0.0000 H   0  0  0  0  0  0  0  0  0  0  0  0
    3.2646   -2.0250    0.0000 H   0  0  0  0  0  0  0  0  0  0  0  0
    2.4675   -2.0250    0.0000 H   0  0  0  0  0  0  0  0  0  0  0  0
    4.0611   -1.1900    0.0000 H   0  0  0  0  0  0  0  0  0  0  0  0
    4.9272    3.3100    0.0000 H   0  0  0  0  0  0  0  0  0  0  0  0
    7.7331    3.3100    0.0000 H   0  0  0  0  0  0  0  0  0  0  0  0
    3.1951   -4.3100    0.0000 H   0  0  0  0  0  0  0  0  0  0  0  0
    6.0010   -2.6900    0.0000 H   0  0  0  0  0  0  0  0  0  0  0  0
    1.6900   -2.4631    0.0000 H   0  0  0  0  0  0  0  0  0  0  0  0
    1.4631   -3.3100    0.0000 H   0  0  0  0  0  0  0  0  0  0  0  0
    2.3100   -3.5369    0.0000 H   0  0  0  0  0  0  0  0  0  0  0  0
    4.5981   -5.1200    0.0000 H   0  0  0  0  0  0  0  0  0  0  0  0
    6.0010   -4.3100    0.0000 H   0  0  0  0  0  0  0  0  0  0  0  0
    6.9501    4.5000    0.0000 H   0  0  0  0  0  0  0  0  0  0  0  0
    6.3301    5.1200    0.0000 H   0  0  0  0  0  0  0  0  0  0  0  0
    5.7101    4.5000    0.0000 H   0  0  0  0  0  0  0  0  0  0  0  0
  1 12  2  0  0  0  0
  4  2  1  1  0  0  0
  2 12  1  0  0  0  0
  2 23  1  0  0  0  0
  3  8  1  0  0  0  0
  3 12  1  0  0  0  0
  3 31  1  0  0  0  0
  4  5  1  0  0  0  0
  4  6  1  0  0  0  0
  4 22  1  0  0  0  0
  5  9  2  0  0  0  0
  5 10  1  0  0  0  0
  6 24  1  0  0  0  0
  6 25  1  0  0  0  0
  6 26  1  0  0  0  0
  7  8  1  0  0  0  0
  7 11  1  0  0  0  0
  7 16  2  0  0  0  0
  8 17  2  0  0  0  0
  9 14  1  0  0  0  0
  9 27  1  0  0  0  0
 10 15  2  0  0  0  0
 10 28  1  0  0  0  0
 11 18  1  0  0  0  0
 11 29  1  0  0  0  0
 11 30  1  0  0  0  0
 13 14  2  0  0  0  0
 13 15  1  0  0  0  0
 13 21  1  0  0  0  0
 14 32  1  0  0  0  0
 15 33  1  0  0  0  0
 16 19  1  0  0  0  0
 16 34  1  0  0  0  0
 17 20  1  0  0  0  0
 17 35  1  0  0  0  0
 18 36  1  0  0  0  0
 18 37  1  0  0  0  0
 18 38  1  0  0  0  0
 19 20  2  0  0  0  0
 19 39  1  0  0  0  0
 20 40  1  0  0  0  0
 21 41  1  0  0  0  0
 21 42  1  0  0  0  0
 21 43  1  0  0  0  0
M  END
> <PUBCHEM_COMPOUND_CID>
27474771

> <PUBCHEM_COMPOUND_CANONICALIZED>
1

> <PUBCHEM_CACTVS_COMPLEXITY>
323

> <PUBCHEM_CACTVS_HBOND_ACCEPTOR>
1

> <PUBCHEM_CACTVS_HBOND_DONOR>
2

> <PUBCHEM_CACTVS_ROTATABLE_BOND>
4

> <PUBCHEM_CACTVS_SUBSKEYS>
AAADceB7IAAAAAAAAAAAAAAAAAAAAAAAAAAwYAAAAAAAAAABQAAAHgAQAAAADCjBGAQzwILAAACIAiRCUACCAAAhAgAIiIAIZIiIICLAkZGEIAholgJIyCcQgMAOQAAAAAACAACAAAAAAAQAAAAAAAAAAA==

> <PUBCHEM_IUPAC_OPENEYE_NAME>
1-(2-ethylphenyl)-3-[(1R)-1-(p-tolyl)ethyl]urea

> <PUBCHEM_IUPAC_CAS_NAME>
1-(2-ethylphenyl)-3-[(1R)-1-(4-methylphenyl)ethyl]urea

> <PUBCHEM_IUPAC_NAME>
1-(2-ethylphenyl)-3-[(1R)-1-(4-methylphenyl)ethyl]urea

> <PUBCHEM_IUPAC_SYSTEMATIC_NAME>
1-(2-ethylphenyl)-3-[(1R)-1-(4-methylphenyl)ethyl]urea

> <PUBCHEM_IUPAC_TRADITIONAL_NAME>
1-(2-ethylphenyl)-3-[(1R)-1-(p-tolyl)ethyl]urea

> <PUBCHEM_IUPAC_INCHI>
InChI=1S/C18H22N2O/c1-4-15-7-5-6-8-17(15)20-18(21)19-14(3)16-11-9-13(2)10-12-16/h5-12,14H,4H2,1-3H3,(H2,19,20,21)/t14-/m1/s1

> <PUBCHEM_IUPAC_INCHIKEY>
YHEAOBBMRPABMX-CQSZACIVSA-N

> <PUBCHEM_XLOGP3>
3.4

> <PUBCHEM_EXACT_MASS>
282.173213

> <PUBCHEM_MOLECULAR_FORMULA>
C18H22N2O

> <PUBCHEM_MOLECULAR_WEIGHT>
282.38008

> <PUBCHEM_OPENEYE_CAN_SMILES>
CCC1=CC=CC=C1NC(=O)NC(C)C2=CC=C(C=C2)C

> <PUBCHEM_OPENEYE_ISO_SMILES>
CCC1=CC=CC=C1NC(=O)N[C@H](C)C2=CC=C(C=C2)C

> <PUBCHEM_CACTVS_TPSA>
41.1

> <PUBCHEM_MONOISOTOPIC_WEIGHT>
282.173213

> <PUBCHEM_TOTAL_CHARGE>
0

> <PUBCHEM_HEAVY_ATOM_COUNT>
21

> <PUBCHEM_ATOM_DEF_STEREO_COUNT>
1

> <PUBCHEM_ATOM_UDEF_STEREO_COUNT>
0

> <PUBCHEM_BOND_DEF_STEREO_COUNT>
0

> <PUBCHEM_BOND_UDEF_STEREO_COUNT>
0

> <PUBCHEM_ISOTOPIC_ATOM_COUNT>
0

> <PUBCHEM_COMPONENT_COUNT>
1

> <PUBCHEM_CACTVS_TAUTO_COUNT>
3

> <PUBCHEM_COORDINATE_TYPE>
1
5
255

> <PUBCHEM_BONDANNOTATIONS>
10  15  8
13  14  8
13  15  8
16  19  8
17  20  8
19  20  8
4  2  5
5  10  8
5  9  8
7  16  8
7  8  8
8  17  8
9  14  8

$$$$
