6242193
  -OEChem-05181307402D

 42 43  0     1  0  0  0  0  0999 V2000
    5.4641    1.2500    0.0000 O   0  0  0  0  0  0  0  0  0  0  0  0
    4.5981   -0.2500    0.0000 N   0  0  0  0  0  0  0  0  0  0  0  0
    3.7320    0.2500    0.0000 C   0  0  3  0  0  0  0  0  0  0  0  0
    2.8660   -0.2500    0.0000 C   0  0  0  0  0  0  0  0  0  0  0  0
    3.7320    1.2500    0.0000 C   0  0  0  0  0  0  0  0  0  0  0  0
    2.0000    0.2500    0.0000 C   0  0  0  0  0  0  0  0  0  0  0  0
    5.4641    0.2500    0.0000 C   0  0  0  0  0  0  0  0  0  0  0  0
    6.3301   -0.2500    0.0000 C   0  0  0  0  0  0  0  0  0  0  0  0
    6.3301   -1.2500    0.0000 C   0  0  0  0  0  0  0  0  0  0  0  0
    7.1962    0.2500    0.0000 C   0  0  0  0  0  0  0  0  0  0  0  0
    7.1962    1.2500    0.0000 C   0  0  0  0  0  0  0  0  0  0  0  0
    5.4641   -1.7500    0.0000 C   0  0  0  0  0  0  0  0  0  0  0  0
    7.1962   -1.7500    0.0000 C   0  0  0  0  0  0  0  0  0  0  0  0
    8.0622    1.7500    0.0000 C   0  0  0  0  0  0  0  0  0  0  0  0
    6.3301    1.7500    0.0000 C   0  0  0  0  0  0  0  0  0  0  0  0
    5.4641   -2.7500    0.0000 C   0  0  0  0  0  0  0  0  0  0  0  0
    7.1962   -2.7500    0.0000 C   0  0  0  0  0  0  0  0  0  0  0  0
    6.3301   -3.2500    0.0000 C   0  0  0  0  0  0  0  0  0  0  0  0
    8.0622    2.7500    0.0000 C   0  0  0  0  0  0  0  0  0  0  0  0
    6.3301    2.7500    0.0000 C   0  0  0  0  0  0  0  0  0  0  0  0
    7.1962    3.2500    0.0000 C   0  0  0  0  0  0  0  0  0  0  0  0
    3.7320   -0.6000    0.0000 H   0  0  0  0  0  0  0  0  0  0  0  0
    2.4675   -0.7249    0.0000 H   0  0  0  0  0  0  0  0  0  0  0  0
    3.2646   -0.7249    0.0000 H   0  0  0  0  0  0  0  0  0  0  0  0
    4.5981   -0.8700    0.0000 H   0  0  0  0  0  0  0  0  0  0  0  0
    4.3520    1.2500    0.0000 H   0  0  0  0  0  0  0  0  0  0  0  0
    3.7320    1.8700    0.0000 H   0  0  0  0  0  0  0  0  0  0  0  0
    3.1120    1.2500    0.0000 H   0  0  0  0  0  0  0  0  0  0  0  0
    2.3100    0.7869    0.0000 H   0  0  0  0  0  0  0  0  0  0  0  0
    1.4631    0.5600    0.0000 H   0  0  0  0  0  0  0  0  0  0  0  0
    1.6900   -0.2869    0.0000 H   0  0  0  0  0  0  0  0  0  0  0  0
    7.7331   -0.0600    0.0000 H   0  0  0  0  0  0  0  0  0  0  0  0
    4.9272   -1.4400    0.0000 H   0  0  0  0  0  0  0  0  0  0  0  0
    7.7331   -1.4400    0.0000 H   0  0  0  0  0  0  0  0  0  0  0  0
    8.5991    1.4400    0.0000 H   0  0  0  0  0  0  0  0  0  0  0  0
    5.7932    1.4400    0.0000 H   0  0  0  0  0  0  0  0  0  0  0  0
    4.9272   -3.0600    0.0000 H   0  0  0  0  0  0  0  0  0  0  0  0
    7.7331   -3.0600    0.0000 H   0  0  0  0  0  0  0  0  0  0  0  0
    6.3301   -3.8700    0.0000 H   0  0  0  0  0  0  0  0  0  0  0  0
    8.5991    3.0600    0.0000 H   0  0  0  0  0  0  0  0  0  0  0  0
    5.7932    3.0600    0.0000 H   0  0  0  0  0  0  0  0  0  0  0  0
    7.1962    3.8700    0.0000 H   0  0  0  0  0  0  0  0  0  0  0  0
  1  7  2  0  0  0  0
  2  3  1  0  0  0  0
  2  7  1  0  0  0  0
  2 25  1  0  0  0  0
  3  4  1  0  0  0  0
  3  5  1  0  0  0  0
  3 22  1  0  0  0  0
  4  6  1  0  0  0  0
  4 23  1  0  0  0  0
  4 24  1  0  0  0  0
  5 26  1  0  0  0  0
  5 27  1  0  0  0  0
  5 28  1  0  0  0  0
  6 29  1  0  0  0  0
  6 30  1  0  0  0  0
  6 31  1  0  0  0  0
  7  8  1  0  0  0  0
  8  9  1  0  0  0  0
  8 10  2  0  0  0  0
  9 12  2  0  0  0  0
  9 13  1  0  0  0  0
 10 11  1  0  0  0  0
 10 32  1  0  0  0  0
 11 14  2  0  0  0  0
 11 15  1  0  0  0  0
 12 16  1  0  0  0  0
 12 33  1  0  0  0  0
 13 17  2  0  0  0  0
 13 34  1  0  0  0  0
 14 19  1  0  0  0  0
 14 35  1  0  0  0  0
 15 20  2  0  0  0  0
 15 36  1  0  0  0  0
 16 18  2  0  0  0  0
 16 37  1  0  0  0  0
 17 18  1  0  0  0  0
 17 38  1  0  0  0  0
 18 39  1  0  0  0  0
 19 21  2  0  0  0  0
 19 40  1  0  0  0  0
 20 21  1  0  0  0  0
 20 41  1  0  0  0  0
 21 42  1  0  0  0  0
M  END
> <PUBCHEM_COMPOUND_CID>
6242193

> <PUBCHEM_COMPOUND_CANONICALIZED>
1

> <PUBCHEM_CACTVS_COMPLEXITY>
349

> <PUBCHEM_CACTVS_HBOND_ACCEPTOR>
1

> <PUBCHEM_CACTVS_HBOND_DONOR>
1

> <PUBCHEM_CACTVS_ROTATABLE_BOND>
5

> <PUBCHEM_CACTVS_SUBSKEYS>
AAADceB6IAAAAAAAAAAAAAAAAAAAAAAAAAAwYAAAAAAAAAABQAAAHgAQAAAADCjBmAQyAILAAACIAiFSEACCAAAgAAAIiIEIAMgIIDKAlRGEIAAglgCIiYcYiICOAAAAAAAAAAAAAAAAAAAAAAAAAAAAAA==

> <PUBCHEM_IUPAC_OPENEYE_NAME>
(Z)-2,3-diphenyl-N-sec-butyl-prop-2-enamide

> <PUBCHEM_IUPAC_CAS_NAME>
(Z)-N-butan-2-yl-2,3-diphenyl-2-propenamide

> <PUBCHEM_IUPAC_NAME>
(Z)-N-butan-2-yl-2,3-diphenylprop-2-enamide

> <PUBCHEM_IUPAC_SYSTEMATIC_NAME>
(Z)-N-butan-2-yl-2,3-diphenyl-prop-2-enamide

> <PUBCHEM_IUPAC_TRADITIONAL_NAME>
(Z)-2,3-diphenyl-N-sec-butyl-acrylamide

> <PUBCHEM_IUPAC_INCHI>
InChI=1S/C19H21NO/c1-3-15(2)20-19(21)18(17-12-8-5-9-13-17)14-16-10-6-4-7-11-16/h4-15H,3H2,1-2H3,(H,20,21)/b18-14-

> <PUBCHEM_IUPAC_INCHIKEY>
GSFHTUIWCKEEIT-JXAWBTAJSA-N

> <PUBCHEM_XLOGP3>
4

> <PUBCHEM_EXACT_MASS>
279.162314

> <PUBCHEM_MOLECULAR_FORMULA>
C19H21NO

> <PUBCHEM_MOLECULAR_WEIGHT>
279.37614

> <PUBCHEM_OPENEYE_CAN_SMILES>
CCC(C)NC(=O)C(=CC1=CC=CC=C1)C2=CC=CC=C2

> <PUBCHEM_OPENEYE_ISO_SMILES>
CCC(C)NC(=O)/C(=C\C1=CC=CC=C1)/C2=CC=CC=C2

> <PUBCHEM_CACTVS_TPSA>
29.1

> <PUBCHEM_MONOISOTOPIC_WEIGHT>
279.162314

> <PUBCHEM_TOTAL_CHARGE>
0

> <PUBCHEM_HEAVY_ATOM_COUNT>
21

> <PUBCHEM_ATOM_DEF_STEREO_COUNT>
0

> <PUBCHEM_ATOM_UDEF_STEREO_COUNT>
1

> <PUBCHEM_BOND_DEF_STEREO_COUNT>
1

> <PUBCHEM_BOND_UDEF_STEREO_COUNT>
0

> <PUBCHEM_ISOTOPIC_ATOM_COUNT>
0

> <PUBCHEM_COMPONENT_COUNT>
1

> <PUBCHEM_CACTVS_TAUTO_COUNT>
2

> <PUBCHEM_COORDINATE_TYPE>
1
5
255

> <PUBCHEM_BONDANNOTATIONS>
11  14  8
11  15  8
12  16  8
13  17  8
14  19  8
15  20  8
16  18  8
17  18  8
19  21  8
20  21  8
3  22  3
9  12  8
9  13  8

$$$$
6246333
  -OEChem-05181307402D

 35 35  0     0  0  0  0  0  0999 V2000
    2.0000   -2.0000    0.0000 Cl  0  0  0  0  0  0  0  0  0  0  0  0
    3.7320   -5.0000    0.0000 Cl  0  0  0  0  0  0  0  0  0  0  0  0
    3.7320    1.0000    0.0000 O   0  0  0  0  0  0  0  0  0  0  0  0
    5.4641    1.0000    0.0000 N   0  0  0  0  0  0  0  0  0  0  0  0
    6.3301    3.5000    0.0000 C   0  0  0  0  0  0  0  0  0  0  0  0
    6.3301    2.5000    0.0000 C   0  0  0  0  0  0  0  0  0  0  0  0
    7.1962    4.0000    0.0000 C   0  0  0  0  0  0  0  0  0  0  0  0
    5.4641    2.0000    0.0000 C   0  0  0  0  0  0  0  0  0  0  0  0
    7.1962    5.0000    0.0000 C   0  0  0  0  0  0  0  0  0  0  0  0
    4.5981    0.5000    0.0000 C   0  0  0  0  0  0  0  0  0  0  0  0
    4.5981   -0.5000    0.0000 C   0  0  0  0  0  0  0  0  0  0  0  0
    3.7320   -2.0000    0.0000 C   0  0  0  0  0  0  0  0  0  0  0  0
    3.7320   -1.0000    0.0000 C   0  0  0  0  0  0  0  0  0  0  0  0
    2.8660   -2.5000    0.0000 C   0  0  0  0  0  0  0  0  0  0  0  0
    4.5981   -2.5000    0.0000 C   0  0  0  0  0  0  0  0  0  0  0  0
    2.8660   -3.5000    0.0000 C   0  0  0  0  0  0  0  0  0  0  0  0
    4.5981   -3.5000    0.0000 C   0  0  0  0  0  0  0  0  0  0  0  0
    3.7320   -4.0000    0.0000 C   0  0  0  0  0  0  0  0  0  0  0  0
    6.1181    4.0826    0.0000 H   0  0  0  0  0  0  0  0  0  0  0  0
    5.7196    3.3923    0.0000 H   0  0  0  0  0  0  0  0  0  0  0  0
    6.5422    1.9174    0.0000 H   0  0  0  0  0  0  0  0  0  0  0  0
    6.9407    2.6077    0.0000 H   0  0  0  0  0  0  0  0  0  0  0  0
    7.4082    3.4174    0.0000 H   0  0  0  0  0  0  0  0  0  0  0  0
    7.8067    4.1077    0.0000 H   0  0  0  0  0  0  0  0  0  0  0  0
    5.2520    2.5826    0.0000 H   0  0  0  0  0  0  0  0  0  0  0  0
    4.8535    1.8923    0.0000 H   0  0  0  0  0  0  0  0  0  0  0  0
    7.8162    5.0000    0.0000 H   0  0  0  0  0  0  0  0  0  0  0  0
    7.1962    5.6200    0.0000 H   0  0  0  0  0  0  0  0  0  0  0  0
    6.5762    5.0000    0.0000 H   0  0  0  0  0  0  0  0  0  0  0  0
    6.0010    0.6900    0.0000 H   0  0  0  0  0  0  0  0  0  0  0  0
    5.1350   -0.8100    0.0000 H   0  0  0  0  0  0  0  0  0  0  0  0
    3.1951   -0.6900    0.0000 H   0  0  0  0  0  0  0  0  0  0  0  0
    5.1350   -2.1900    0.0000 H   0  0  0  0  0  0  0  0  0  0  0  0
    2.3291   -3.8100    0.0000 H   0  0  0  0  0  0  0  0  0  0  0  0
    5.1350   -3.8100    0.0000 H   0  0  0  0  0  0  0  0  0  0  0  0
  1 14  1  0  0  0  0
  2 18  1  0  0  0  0
  3 10  2  0  0  0  0
  4  8  1  0  0  0  0
  4 10  1  0  0  0  0
  4 30  1  0  0  0  0
  5  6  1  0  0  0  0
  5  7  1  0  0  0  0
  5 19  1  0  0  0  0
  5 20  1  0  0  0  0
  6  8  1  0  0  0  0
  6 21  1  0  0  0  0
  6 22  1  0  0  0  0
  7  9  1  0  0  0  0
  7 23  1  0  0  0  0
  7 24  1  0  0  0  0
  8 25  1  0  0  0  0
  8 26  1  0  0  0  0
  9 27  1  0  0  0  0
  9 28  1  0  0  0  0
  9 29  1  0  0  0  0
 10 11  1  0  0  0  0
 11 13  2  0  0  0  0
 11 31  1  0  0  0  0
 12 13  1  0  0  0  0
 12 14  2  0  0  0  0
 12 15  1  0  0  0  0
 13 32  1  0  0  0  0
 14 16  1  0  0  0  0
 15 17  2  0  0  0  0
 15 33  1  0  0  0  0
 16 18  2  0  0  0  0
 16 34  1  0  0  0  0
 17 18  1  0  0  0  0
 17 35  1  0  0  0  0
M  END
> <PUBCHEM_COMPOUND_CID>
6246333

> <PUBCHEM_COMPOUND_CANONICALIZED>
1

> <PUBCHEM_CACTVS_COMPLEXITY>
281

> <PUBCHEM_CACTVS_HBOND_ACCEPTOR>
1

> <PUBCHEM_CACTVS_HBOND_DONOR>
1

> <PUBCHEM_CACTVS_ROTATABLE_BOND>
6

> <PUBCHEM_CACTVS_SUBSKEYS>
AAADceByIAAGAAAAAAAAAAAAAAAAAAAAAAAwAAAAAAAAAAABAAAAHgIQAAAADALBmCQyAILAAACIAiFSEACCAAAgBQAIiIAIAsgIICKBkxCEIAAglgCIiYcQgAAOBAAAAACBAAAIAAAAAQIAAAAAAAAAAA==

> <PUBCHEM_IUPAC_OPENEYE_NAME>
(E)-3-(2,4-dichlorophenyl)-N-pentyl-prop-2-enamide

> <PUBCHEM_IUPAC_CAS_NAME>
(E)-3-(2,4-dichlorophenyl)-N-pentyl-2-propenamide

> <PUBCHEM_IUPAC_NAME>
(E)-3-(2,4-dichlorophenyl)-N-pentylprop-2-enamide

> <PUBCHEM_IUPAC_SYSTEMATIC_NAME>
(E)-3-(2,4-dichlorophenyl)-N-pentyl-prop-2-enamide

> <PUBCHEM_IUPAC_TRADITIONAL_NAME>
(E)-N-amyl-3-(2,4-dichlorophenyl)acrylamide

> <PUBCHEM_IUPAC_INCHI>
InChI=1S/C14H17Cl2NO/c1-2-3-4-9-17-14(18)8-6-11-5-7-12(15)10-13(11)16/h5-8,10H,2-4,9H2,1H3,(H,17,18)/b8-6+

> <PUBCHEM_IUPAC_INCHIKEY>
ABVQTXPIJULGEI-SOFGYWHQSA-N

> <PUBCHEM_XLOGP3>
4.5

> <PUBCHEM_EXACT_MASS>
285.06872

> <PUBCHEM_MOLECULAR_FORMULA>
C14H17Cl2NO

> <PUBCHEM_MOLECULAR_WEIGHT>
286.19688

> <PUBCHEM_OPENEYE_CAN_SMILES>
CCCCCNC(=O)C=CC1=C(C=C(C=C1)Cl)Cl

> <PUBCHEM_OPENEYE_ISO_SMILES>
CCCCCNC(=O)/C=C/C1=C(C=C(C=C1)Cl)Cl

> <PUBCHEM_CACTVS_TPSA>
29.1

> <PUBCHEM_MONOISOTOPIC_WEIGHT>
285.06872

> <PUBCHEM_TOTAL_CHARGE>
0

> <PUBCHEM_HEAVY_ATOM_COUNT>
18

> <PUBCHEM_ATOM_DEF_STEREO_COUNT>
0

> <PUBCHEM_ATOM_UDEF_STEREO_COUNT>
0

> <PUBCHEM_BOND_DEF_STEREO_COUNT>
1

> <PUBCHEM_BOND_UDEF_STEREO_COUNT>
0

> <PUBCHEM_ISOTOPIC_ATOM_COUNT>
0

> <PUBCHEM_COMPONENT_COUNT>
1

> <PUBCHEM_CACTVS_TAUTO_COUNT>
2

> <PUBCHEM_COORDINATE_TYPE>
1
5
255

> <PUBCHEM_BONDANNOTATIONS>
12  14  8
12  15  8
14  16  8
15  17  8
16  18  8
17  18  8

$$$$
6246552
  -OEChem-05181307402D

 42 43  0     0  0  0  0  0  0999 V2000
    6.3301    1.2500    0.0000 O   0  0  0  0  0  0  0  0  0  0  0  0
    5.4641   -0.2500    0.0000 N   0  0  0  0  0  0  0  0  0  0  0  0
    3.7320   -0.2500    0.0000 C   0  0  0  0  0  0  0  0  0  0  0  0
    4.5981    0.2500    0.0000 C   0  0  0  0  0  0  0  0  0  0  0  0
    2.8660    0.2500    0.0000 C   0  0  0  0  0  0  0  0  0  0  0  0
    7.1962   -0.2500    0.0000 C   0  0  0  0  0  0  0  0  0  0  0  0
    6.3301    0.2500    0.0000 C   0  0  0  0  0  0  0  0  0  0  0  0
    2.0000   -0.2500    0.0000 C   0  0  0  0  0  0  0  0  0  0  0  0
    7.1962   -1.2500    0.0000 C   0  0  0  0  0  0  0  0  0  0  0  0
    8.0622    0.2500    0.0000 C   0  0  0  0  0  0  0  0  0  0  0  0
    8.0622    1.2500    0.0000 C   0  0  0  0  0  0  0  0  0  0  0  0
    6.3301   -1.7500    0.0000 C   0  0  0  0  0  0  0  0  0  0  0  0
    8.0622   -1.7500    0.0000 C   0  0  0  0  0  0  0  0  0  0  0  0
    8.9282    1.7500    0.0000 C   0  0  0  0  0  0  0  0  0  0  0  0
    7.1962    1.7500    0.0000 C   0  0  0  0  0  0  0  0  0  0  0  0
    6.3301   -2.7500    0.0000 C   0  0  0  0  0  0  0  0  0  0  0  0
    8.0622   -2.7500    0.0000 C   0  0  0  0  0  0  0  0  0  0  0  0
    7.1962   -3.2500    0.0000 C   0  0  0  0  0  0  0  0  0  0  0  0
    8.9282    2.7500    0.0000 C   0  0  0  0  0  0  0  0  0  0  0  0
    7.1962    2.7500    0.0000 C   0  0  0  0  0  0  0  0  0  0  0  0
    8.0622    3.2500    0.0000 C   0  0  0  0  0  0  0  0  0  0  0  0
    3.3335   -0.7249    0.0000 H   0  0  0  0  0  0  0  0  0  0  0  0
    4.1306   -0.7249    0.0000 H   0  0  0  0  0  0  0  0  0  0  0  0
    4.9966    0.7249    0.0000 H   0  0  0  0  0  0  0  0  0  0  0  0
    4.1996    0.7249    0.0000 H   0  0  0  0  0  0  0  0  0  0  0  0
    3.2646    0.7249    0.0000 H   0  0  0  0  0  0  0  0  0  0  0  0
    2.4675    0.7249    0.0000 H   0  0  0  0  0  0  0  0  0  0  0  0
    5.4641   -0.8700    0.0000 H   0  0  0  0  0  0  0  0  0  0  0  0
    1.6900    0.2869    0.0000 H   0  0  0  0  0  0  0  0  0  0  0  0
    1.4631   -0.5600    0.0000 H   0  0  0  0  0  0  0  0  0  0  0  0
    2.3100   -0.7869    0.0000 H   0  0  0  0  0  0  0  0  0  0  0  0
    8.5991   -0.0600    0.0000 H   0  0  0  0  0  0  0  0  0  0  0  0
    5.7932   -1.4400    0.0000 H   0  0  0  0  0  0  0  0  0  0  0  0
    8.5991   -1.4400    0.0000 H   0  0  0  0  0  0  0  0  0  0  0  0
    9.4651    1.4400    0.0000 H   0  0  0  0  0  0  0  0  0  0  0  0
    6.6592    1.4400    0.0000 H   0  0  0  0  0  0  0  0  0  0  0  0
    5.7932   -3.0600    0.0000 H   0  0  0  0  0  0  0  0  0  0  0  0
    8.5991   -3.0600    0.0000 H   0  0  0  0  0  0  0  0  0  0  0  0
    7.1962   -3.8700    0.0000 H   0  0  0  0  0  0  0  0  0  0  0  0
    9.4651    3.0600    0.0000 H   0  0  0  0  0  0  0  0  0  0  0  0
    6.6592    3.0600    0.0000 H   0  0  0  0  0  0  0  0  0  0  0  0
    8.0622    3.8700    0.0000 H   0  0  0  0  0  0  0  0  0  0  0  0
  1  7  2  0  0  0  0
  2  4  1  0  0  0  0
  2  7  1  0  0  0  0
  2 28  1  0  0  0  0
  3  4  1  0  0  0  0
  3  5  1  0  0  0  0
  3 22  1  0  0  0  0
  3 23  1  0  0  0  0
  4 24  1  0  0  0  0
  4 25  1  0  0  0  0
  5  8  1  0  0  0  0
  5 26  1  0  0  0  0
  5 27  1  0  0  0  0
  6  7  1  0  0  0  0
  6  9  1  0  0  0  0
  6 10  2  0  0  0  0
  8 29  1  0  0  0  0
  8 30  1  0  0  0  0
  8 31  1  0  0  0  0
  9 12  2  0  0  0  0
  9 13  1  0  0  0  0
 10 11  1  0  0  0  0
 10 32  1  0  0  0  0
 11 14  2  0  0  0  0
 11 15  1  0  0  0  0
 12 16  1  0  0  0  0
 12 33  1  0  0  0  0
 13 17  2  0  0  0  0
 13 34  1  0  0  0  0
 14 19  1  0  0  0  0
 14 35  1  0  0  0  0
 15 20  2  0  0  0  0
 15 36  1  0  0  0  0
 16 18  2  0  0  0  0
 16 37  1  0  0  0  0
 17 18  1  0  0  0  0
 17 38  1  0  0  0  0
 18 39  1  0  0  0  0
 19 21  2  0  0  0  0
 19 40  1  0  0  0  0
 20 21  1  0  0  0  0
 20 41  1  0  0  0  0
 21 42  1  0  0  0  0
M  END
> <PUBCHEM_COMPOUND_CID>
6246552

> <PUBCHEM_COMPOUND_CANONICALIZED>
1

> <PUBCHEM_CACTVS_COMPLEXITY>
336

> <PUBCHEM_CACTVS_HBOND_ACCEPTOR>
1

> <PUBCHEM_CACTVS_HBOND_DONOR>
1

> <PUBCHEM_CACTVS_ROTATABLE_BOND>
6

> <PUBCHEM_CACTVS_SUBSKEYS>
AAADceB6IAAAAAAAAAAAAAAAAAAAAAAAAAAwYAAAAAAAAAABQAAAHgAQAAAADADBmAQyAILAAACIAiFSEACCAAAgAAAIiIEIAMgIIDKAlRGEIAAglgCIiYcYiICOAAAAAAAAAAAAAAAAAAAAAAAAAAAAAA==

> <PUBCHEM_IUPAC_OPENEYE_NAME>
(Z)-N-butyl-2,3-diphenyl-prop-2-enamide

> <PUBCHEM_IUPAC_CAS_NAME>
(Z)-N-butyl-2,3-diphenyl-2-propenamide

> <PUBCHEM_IUPAC_NAME>
(Z)-N-butyl-2,3-diphenylprop-2-enamide

> <PUBCHEM_IUPAC_SYSTEMATIC_NAME>
(Z)-N-butyl-2,3-diphenyl-prop-2-enamide

> <PUBCHEM_IUPAC_TRADITIONAL_NAME>
(Z)-N-butyl-2,3-diphenyl-acrylamide

> <PUBCHEM_IUPAC_INCHI>
InChI=1S/C19H21NO/c1-2-3-14-20-19(21)18(17-12-8-5-9-13-17)15-16-10-6-4-7-11-16/h4-13,15H,2-3,14H2,1H3,(H,20,21)/b18-15-

> <PUBCHEM_IUPAC_INCHIKEY>
HBINBFYWSBAKEU-SDXDJHTJSA-N

> <PUBCHEM_XLOGP3>
4

> <PUBCHEM_EXACT_MASS>
279.162314

> <PUBCHEM_MOLECULAR_FORMULA>
C19H21NO

> <PUBCHEM_MOLECULAR_WEIGHT>
279.37614

> <PUBCHEM_OPENEYE_CAN_SMILES>
CCCCNC(=O)C(=CC1=CC=CC=C1)C2=CC=CC=C2

> <PUBCHEM_OPENEYE_ISO_SMILES>
CCCCNC(=O)/C(=C\C1=CC=CC=C1)/C2=CC=CC=C2

> <PUBCHEM_CACTVS_TPSA>
29.1

> <PUBCHEM_MONOISOTOPIC_WEIGHT>
279.162314

> <PUBCHEM_TOTAL_CHARGE>
0

> <PUBCHEM_HEAVY_ATOM_COUNT>
21

> <PUBCHEM_ATOM_DEF_STEREO_COUNT>
0

> <PUBCHEM_ATOM_UDEF_STEREO_COUNT>
0

> <PUBCHEM_BOND_DEF_STEREO_COUNT>
1

> <PUBCHEM_BOND_UDEF_STEREO_COUNT>
0

> <PUBCHEM_ISOTOPIC_ATOM_COUNT>
0

> <PUBCHEM_COMPONENT_COUNT>
1

> <PUBCHEM_CACTVS_TAUTO_COUNT>
2

> <PUBCHEM_COORDINATE_TYPE>
1
5
255

> <PUBCHEM_BONDANNOTATIONS>
11  14  8
11  15  8
12  16  8
13  17  8
14  19  8
15  20  8
16  18  8
17  18  8
19  21  8
20  21  8
9  12  8
9  13  8

$$$$
6247700
  -OEChem-05181307402D

 33 34  0     0  0  0  0  0  0999 V2000
    2.0000   -2.0000    0.0000 Cl  0  0  0  0  0  0  0  0  0  0  0  0
    5.4641   -4.0000    0.0000 Cl  0  0  0  0  0  0  0  0  0  0  0  0
    5.4641   -1.0000    0.0000 O   0  0  0  0  0  0  0  0  0  0  0  0
    3.7320   -1.0000    0.0000 N   0  0  0  0  0  0  0  0  0  0  0  0
    4.5981    0.5000    0.0000 C   0  0  0  0  0  0  0  0  0  0  0  0
    3.7320   -2.0000    0.0000 C   0  0  0  0  0  0  0  0  0  0  0  0
    5.4641    2.0000    0.0000 C   0  0  0  0  0  0  0  0  0  0  0  0
    5.4641    1.0000    0.0000 C   0  0  0  0  0  0  0  0  0  0  0  0
    4.5981   -0.5000    0.0000 C   0  0  0  0  0  0  0  0  0  0  0  0
    3.7320    1.0000    0.0000 C   0  0  0  0  0  0  0  0  0  0  0  0
    2.8660   -2.5000    0.0000 C   0  0  0  0  0  0  0  0  0  0  0  0
    4.5981   -2.5000    0.0000 C   0  0  0  0  0  0  0  0  0  0  0  0
    6.3301    2.5000    0.0000 C   0  0  0  0  0  0  0  0  0  0  0  0
    4.5981    2.5000    0.0000 C   0  0  0  0  0  0  0  0  0  0  0  0
    4.5981   -3.5000    0.0000 C   0  0  0  0  0  0  0  0  0  0  0  0
    2.8660   -3.5000    0.0000 C   0  0  0  0  0  0  0  0  0  0  0  0
    3.7320   -4.0000    0.0000 C   0  0  0  0  0  0  0  0  0  0  0  0
    6.3301    3.5000    0.0000 C   0  0  0  0  0  0  0  0  0  0  0  0
    4.5981    3.5000    0.0000 C   0  0  0  0  0  0  0  0  0  0  0  0
    5.4641    4.0000    0.0000 C   0  0  0  0  0  0  0  0  0  0  0  0
    6.0010    0.6900    0.0000 H   0  0  0  0  0  0  0  0  0  0  0  0
    3.1951   -0.6900    0.0000 H   0  0  0  0  0  0  0  0  0  0  0  0
    4.0420    1.5369    0.0000 H   0  0  0  0  0  0  0  0  0  0  0  0
    3.1951    1.3100    0.0000 H   0  0  0  0  0  0  0  0  0  0  0  0
    3.4220    0.4631    0.0000 H   0  0  0  0  0  0  0  0  0  0  0  0
    5.1350   -2.1900    0.0000 H   0  0  0  0  0  0  0  0  0  0  0  0
    6.8671    2.1900    0.0000 H   0  0  0  0  0  0  0  0  0  0  0  0
    4.0611    2.1900    0.0000 H   0  0  0  0  0  0  0  0  0  0  0  0
    2.3291   -3.8100    0.0000 H   0  0  0  0  0  0  0  0  0  0  0  0
    3.7320   -4.6200    0.0000 H   0  0  0  0  0  0  0  0  0  0  0  0
    6.8671    3.8100    0.0000 H   0  0  0  0  0  0  0  0  0  0  0  0
    4.0611    3.8100    0.0000 H   0  0  0  0  0  0  0  0  0  0  0  0
    5.4641    4.6200    0.0000 H   0  0  0  0  0  0  0  0  0  0  0  0
  1 11  1  0  0  0  0
  2 15  1  0  0  0  0
  3  9  2  0  0  0  0
  4  6  1  0  0  0  0
  4  9  1  0  0  0  0
  4 22  1  0  0  0  0
  5  8  2  0  0  0  0
  5  9  1  0  0  0  0
  5 10  1  0  0  0  0
  6 11  2  0  0  0  0
  6 12  1  0  0  0  0
  7  8  1  0  0  0  0
  7 13  2  0  0  0  0
  7 14  1  0  0  0  0
  8 21  1  0  0  0  0
 10 23  1  0  0  0  0
 10 24  1  0  0  0  0
 10 25  1  0  0  0  0
 11 16  1  0  0  0  0
 12 15  2  0  0  0  0
 12 26  1  0  0  0  0
 13 18  1  0  0  0  0
 13 27  1  0  0  0  0
 14 19  2  0  0  0  0
 14 28  1  0  0  0  0
 15 17  1  0  0  0  0
 16 17  2  0  0  0  0
 16 29  1  0  0  0  0
 17 30  1  0  0  0  0
 18 20  2  0  0  0  0
 18 31  1  0  0  0  0
 19 20  1  0  0  0  0
 19 32  1  0  0  0  0
 20 33  1  0  0  0  0
M  END
> <PUBCHEM_COMPOUND_CID>
6247700

> <PUBCHEM_COMPOUND_CANONICALIZED>
1

> <PUBCHEM_CACTVS_COMPLEXITY>
364

> <PUBCHEM_CACTVS_HBOND_ACCEPTOR>
1

> <PUBCHEM_CACTVS_HBOND_DONOR>
1

> <PUBCHEM_CACTVS_ROTATABLE_BOND>
3

> <PUBCHEM_CACTVS_SUBSKEYS>
AAADccB6IAAGAAAAAAAAAAAAAAAAAAAAAAAwYAAAAAAAAAABQAAAHgIQAAAADAqBmCAywILAAACIAiVSUACCAAAhBwAIiAEAZsgIICLBk5HEIAhglADIyYcQgAAOAAAQAAIAABAAACAABAAAIAAAAAAAAA==

> <PUBCHEM_IUPAC_OPENEYE_NAME>
(E)-N-(2,5-dichlorophenyl)-2-methyl-3-phenyl-prop-2-enamide

> <PUBCHEM_IUPAC_CAS_NAME>
(E)-N-(2,5-dichlorophenyl)-2-methyl-3-phenyl-2-propenamide

> <PUBCHEM_IUPAC_NAME>
(E)-N-(2,5-dichlorophenyl)-2-methyl-3-phenylprop-2-enamide

> <PUBCHEM_IUPAC_SYSTEMATIC_NAME>
(E)-N-[2,5-bis(chloranyl)phenyl]-2-methyl-3-phenyl-prop-2-enamide

> <PUBCHEM_IUPAC_TRADITIONAL_NAME>
(E)-N-(2,5-dichlorophenyl)-2-methyl-3-phenyl-acrylamide

> <PUBCHEM_IUPAC_INCHI>
InChI=1S/C16H13Cl2NO/c1-11(9-12-5-3-2-4-6-12)16(20)19-15-10-13(17)7-8-14(15)18/h2-10H,1H3,(H,19,20)/b11-9+

> <PUBCHEM_IUPAC_INCHIKEY>
XKOIYZBYKROSBC-PKNBQFBNSA-N

> <PUBCHEM_XLOGP3>
4.6

> <PUBCHEM_EXACT_MASS>
305.037419

> <PUBCHEM_MOLECULAR_FORMULA>
C16H13Cl2NO

> <PUBCHEM_MOLECULAR_WEIGHT>
306.18652

> <PUBCHEM_OPENEYE_CAN_SMILES>
CC(=CC1=CC=CC=C1)C(=O)NC2=C(C=CC(=C2)Cl)Cl

> <PUBCHEM_OPENEYE_ISO_SMILES>
C/C(=C\C1=CC=CC=C1)/C(=O)NC2=C(C=CC(=C2)Cl)Cl

> <PUBCHEM_CACTVS_TPSA>
29.1

> <PUBCHEM_MONOISOTOPIC_WEIGHT>
305.037419

> <PUBCHEM_TOTAL_CHARGE>
0

> <PUBCHEM_HEAVY_ATOM_COUNT>
20

> <PUBCHEM_ATOM_DEF_STEREO_COUNT>
0

> <PUBCHEM_ATOM_UDEF_STEREO_COUNT>
0

> <PUBCHEM_BOND_DEF_STEREO_COUNT>
1

> <PUBCHEM_BOND_UDEF_STEREO_COUNT>
0

> <PUBCHEM_ISOTOPIC_ATOM_COUNT>
0

> <PUBCHEM_COMPONENT_COUNT>
1

> <PUBCHEM_CACTVS_TAUTO_COUNT>
2

> <PUBCHEM_COORDINATE_TYPE>
1
5
255

> <PUBCHEM_BONDANNOTATIONS>
11  16  8
12  15  8
13  18  8
14  19  8
15  17  8
16  17  8
18  20  8
19  20  8
6  11  8
6  12  8
7  13  8
7  14  8

$$$$
