61363957
  -OEChem-10201218412D

 38 41  0     1  0  0  0  0  0999 V2000
    4.3211    1.0395    0.0000 O   0  0  0  0  0  0  0  0  0  0  0  0
    4.6783   -2.2648    0.0000 N   0  0  0  0  0  0  0  0  0  0  0  0
    6.8552    1.7043    0.0000 C   0  0  3  0  0  0  0  0  0  0  0  0
    7.8546    1.7374    0.0000 C   0  0  3  0  0  0  0  0  0  0  0  0
    5.9674    0.5014    0.0000 C   0  0  3  0  0  0  0  0  0  0  0  0
    8.6447    0.7973    0.0000 C   0  0  0  0  0  0  0  0  0  0  0  0
    6.8052   -0.0446    0.0000 C   0  0  0  0  0  0  0  0  0  0  0  0
    6.6766    3.1821    0.0000 C   0  0  0  0  0  0  0  0  0  0  0  0
    7.6761    3.2153    0.0000 C   0  0  0  0  0  0  0  0  0  0  0  0
    4.9889    0.2952    0.0000 C   0  0  0  0  0  0  0  0  0  0  0  0
    4.6783   -0.6553    0.0000 C   0  0  0  0  0  0  0  0  0  0  0  0
    3.7320   -0.9600    0.0000 C   0  0  0  0  0  0  0  0  0  0  0  0
    5.2619   -1.4600    0.0000 C   0  0  0  0  0  0  0  0  0  0  0  0
    3.7320   -1.9600    0.0000 C   0  0  0  0  0  0  0  0  0  0  0  0
    2.8660   -0.4600    0.0000 C   0  0  0  0  0  0  0  0  0  0  0  0
    2.8660   -2.4600    0.0000 C   0  0  0  0  0  0  0  0  0  0  0  0
    4.9889   -3.2153    0.0000 C   0  0  0  0  0  0  0  0  0  0  0  0
    2.0000   -0.9600    0.0000 C   0  0  0  0  0  0  0  0  0  0  0  0
    2.0000   -1.9600    0.0000 C   0  0  0  0  0  0  0  0  0  0  0  0
    6.2556    1.8623    0.0000 H   0  0  0  0  0  0  0  0  0  0  0  0
    8.4233    1.9843    0.0000 H   0  0  0  0  0  0  0  0  0  0  0  0
    5.6322    1.0230    0.0000 H   0  0  0  0  0  0  0  0  0  0  0  0
    8.5953    0.1793    0.0000 H   0  0  0  0  0  0  0  0  0  0  0  0
    9.2352    0.9862    0.0000 H   0  0  0  0  0  0  0  0  0  0  0  0
    6.4745   -0.5691    0.0000 H   0  0  0  0  0  0  0  0  0  0  0  0
    7.3346   -0.3673    0.0000 H   0  0  0  0  0  0  0  0  0  0  0  0
    6.6381    3.8009    0.0000 H   0  0  0  0  0  0  0  0  0  0  0  0
    6.0592    3.1256    0.0000 H   0  0  0  0  0  0  0  0  0  0  0  0
    8.2935    3.2718    0.0000 H   0  0  0  0  0  0  0  0  0  0  0  0
    7.6376    3.8341    0.0000 H   0  0  0  0  0  0  0  0  0  0  0  0
    5.8819   -1.4600    0.0000 H   0  0  0  0  0  0  0  0  0  0  0  0
    2.8660    0.1600    0.0000 H   0  0  0  0  0  0  0  0  0  0  0  0
    2.8660   -3.0800    0.0000 H   0  0  0  0  0  0  0  0  0  0  0  0
    4.3996   -3.4079    0.0000 H   0  0  0  0  0  0  0  0  0  0  0  0
    5.1815   -3.8046    0.0000 H   0  0  0  0  0  0  0  0  0  0  0  0
    5.5783   -3.0227    0.0000 H   0  0  0  0  0  0  0  0  0  0  0  0
    1.4631   -0.6500    0.0000 H   0  0  0  0  0  0  0  0  0  0  0  0
    1.4631   -2.2700    0.0000 H   0  0  0  0  0  0  0  0  0  0  0  0
  1 10  2  0  0  0  0
  2 13  1  0  0  0  0
  2 14  1  0  0  0  0
  2 17  1  0  0  0  0
  3  5  1  0  0  0  0
  3  6  1  0  0  0  0
  3  8  1  0  0  0  0
  3 20  1  0  0  0  0
  4  6  1  0  0  0  0
  4  7  1  0  0  0  0
  4  9  1  0  0  0  0
  4 21  1  0  0  0  0
  5  7  1  0  0  0  0
  5 10  1  0  0  0  0
  5 22  1  0  0  0  0
  6 23  1  0  0  0  0
  6 24  1  0  0  0  0
  7 25  1  0  0  0  0
  7 26  1  0  0  0  0
  8  9  1  0  0  0  0
  8 27  1  0  0  0  0
  8 28  1  0  0  0  0
  9 29  1  0  0  0  0
  9 30  1  0  0  0  0
 10 11  1  0  0  0  0
 11 12  1  0  0  0  0
 11 13  2  0  0  0  0
 12 14  1  0  0  0  0
 12 15  2  0  0  0  0
 13 31  1  0  0  0  0
 14 16  2  0  0  0  0
 15 18  1  0  0  0  0
 15 32  1  0  0  0  0
 16 19  1  0  0  0  0
 16 33  1  0  0  0  0
 17 34  1  0  0  0  0
 17 35  1  0  0  0  0
 17 36  1  0  0  0  0
 18 19  2  0  0  0  0
 18 37  1  0  0  0  0
 19 38  1  0  0  0  0
M  END
> <PUBCHEM_COMPOUND_CID>
61363957

> <PUBCHEM_COMPOUND_CANONICALIZED>
1

> <PUBCHEM_CACTVS_COMPLEXITY>
380

> <PUBCHEM_CACTVS_HBOND_ACCEPTOR>
1

> <PUBCHEM_CACTVS_HBOND_DONOR>
0

> <PUBCHEM_CACTVS_ROTATABLE_BOND>
2

> <PUBCHEM_CACTVS_SUBSKEYS>
AAADceB6IAAAAAAAAAAAAAAAAAAAAeMEAAAwYAAAAAAAAFgB8AAAHgAAAAAADQzBngQ+wPMMEACoA7R3RACCgCA1AiAI2CE4ZNgIIPrAlZGEIYhggADIyccciMCOgAAAAAACAAAAAAQAACQAAQAACAAAAA==

> <PUBCHEM_IUPAC_OPENEYE_NAME>
(1-methylindol-3-yl)-norbornan-2-yl-methanone

> <PUBCHEM_IUPAC_CAS_NAME>
3-bicyclo[2.2.1]heptanyl-(1-methyl-3-indolyl)methanone

> <PUBCHEM_IUPAC_NAME>
3-bicyclo[2.2.1]heptanyl-(1-methylindol-3-yl)methanone

> <PUBCHEM_IUPAC_SYSTEMATIC_NAME>
3-bicyclo[2.2.1]heptanyl-(1-methylindol-3-yl)methanone

> <PUBCHEM_IUPAC_TRADITIONAL_NAME>
(1-methylindol-3-yl)-(2-norbornyl)methanone

> <PUBCHEM_IUPAC_INCHI>
InChI=1S/C17H19NO/c1-18-10-15(13-4-2-3-5-16(13)18)17(19)14-9-11-6-7-12(14)8-11/h2-5,10-12,14H,6-9H2,1H3

> <PUBCHEM_IUPAC_INCHIKEY>
MURMVIDZHVSLNU-UHFFFAOYSA-N

> <PUBCHEM_XLOGP3>
4

> <PUBCHEM_EXACT_MASS>
253.146664

> <PUBCHEM_MOLECULAR_FORMULA>
C17H19NO

> <PUBCHEM_MOLECULAR_WEIGHT>
253.33886

> <PUBCHEM_OPENEYE_CAN_SMILES>
CN1C=C(C2=CC=CC=C21)C(=O)C3CC4CCC3C4

> <PUBCHEM_OPENEYE_ISO_SMILES>
CN1C=C(C2=CC=CC=C21)C(=O)C3CC4CCC3C4

> <PUBCHEM_CACTVS_TPSA>
22

> <PUBCHEM_MONOISOTOPIC_WEIGHT>
253.146664

> <PUBCHEM_TOTAL_CHARGE>
0

> <PUBCHEM_HEAVY_ATOM_COUNT>
19

> <PUBCHEM_ATOM_DEF_STEREO_COUNT>
0

> <PUBCHEM_ATOM_UDEF_STEREO_COUNT>
3

> <PUBCHEM_BOND_DEF_STEREO_COUNT>
0

> <PUBCHEM_BOND_UDEF_STEREO_COUNT>
0

> <PUBCHEM_ISOTOPIC_ATOM_COUNT>
0

> <PUBCHEM_COMPONENT_COUNT>
1

> <PUBCHEM_CACTVS_TAUTO_COUNT>
2

> <PUBCHEM_COORDINATE_TYPE>
1
5
255

> <PUBCHEM_BONDANNOTATIONS>
11  12  8
11  13  8
12  14  8
12  15  8
14  16  8
15  18  8
16  19  8
18  19  8
2  13  8
2  14  8
3  8  3
4  9  3
5  10  3

$$$$
61364776
  -OEChem-10201218422D

 39 41  0     0  0  0  0  0  0999 V2000
    3.9487    0.2873    0.0000 N   0  0  0  0  0  0  0  0  0  0  0  0
    3.0827   -0.2127    0.0000 C   0  0  0  0  0  0  0  0  0  0  0  0
    2.1045   -0.4207    0.0000 C   0  0  0  0  0  0  0  0  0  0  0  0
    3.5827   -1.0788    0.0000 C   0  0  0  0  0  0  0  0  0  0  0  0
    2.0000   -1.4152    0.0000 C   0  0  0  0  0  0  0  0  0  0  0  0
    2.9136   -1.8219    0.0000 C   0  0  0  0  0  0  0  0  0  0  0  0
    2.8748    0.7654    0.0000 C   0  0  0  0  0  0  0  0  0  0  0  0
    4.8147   -0.2127    0.0000 C   0  0  0  0  0  0  0  0  0  0  0  0
    5.6808    0.2873    0.0000 C   0  0  0  0  0  0  0  0  0  0  0  0
    6.5468   -0.2127    0.0000 C   0  0  0  0  0  0  0  0  0  0  0  0
    5.6808    1.2872    0.0000 C   0  0  0  0  0  0  0  0  0  0  0  0
    7.4128    0.2873    0.0000 C   0  0  0  0  0  0  0  0  0  0  0  0
    7.4128    1.2872    0.0000 C   0  0  0  0  0  0  0  0  0  0  0  0
    6.5468    1.7872    0.0000 C   0  0  0  0  0  0  0  0  0  0  0  0
    8.3067   -0.2474    0.0000 C   0  0  0  0  0  0  0  0  0  0  0  0
    8.3067    1.8219    0.0000 C   0  0  0  0  0  0  0  0  0  0  0  0
    9.2128    0.2664    0.0000 C   0  0  0  0  0  0  0  0  0  0  0  0
    9.2128    1.3081    0.0000 C   0  0  0  0  0  0  0  0  0  0  0  0
    2.0397    0.1959    0.0000 H   0  0  0  0  0  0  0  0  0  0  0  0
    1.4845   -0.4207    0.0000 H   0  0  0  0  0  0  0  0  0  0  0  0
    3.9975   -1.5395    0.0000 H   0  0  0  0  0  0  0  0  0  0  0  0
    4.0843   -0.7143    0.0000 H   0  0  0  0  0  0  0  0  0  0  0  0
    1.3936   -1.2863    0.0000 H   0  0  0  0  0  0  0  0  0  0  0  0
    1.8084   -2.0048    0.0000 H   0  0  0  0  0  0  0  0  0  0  0  0
    2.6035   -2.3588    0.0000 H   0  0  0  0  0  0  0  0  0  0  0  0
    3.4151   -2.1863    0.0000 H   0  0  0  0  0  0  0  0  0  0  0  0
    3.4812    0.8943    0.0000 H   0  0  0  0  0  0  0  0  0  0  0  0
    2.7459    1.3718    0.0000 H   0  0  0  0  0  0  0  0  0  0  0  0
    2.2683    0.6365    0.0000 H   0  0  0  0  0  0  0  0  0  0  0  0
    3.9487    0.9073    0.0000 H   0  0  0  0  0  0  0  0  0  0  0  0
    4.4162   -0.6877    0.0000 H   0  0  0  0  0  0  0  0  0  0  0  0
    5.2133   -0.6877    0.0000 H   0  0  0  0  0  0  0  0  0  0  0  0
    6.5468   -0.8327    0.0000 H   0  0  0  0  0  0  0  0  0  0  0  0
    5.1438    1.5972    0.0000 H   0  0  0  0  0  0  0  0  0  0  0  0
    6.5468    2.4072    0.0000 H   0  0  0  0  0  0  0  0  0  0  0  0
    8.2996   -0.8674    0.0000 H   0  0  0  0  0  0  0  0  0  0  0  0
    8.2996    2.4419    0.0000 H   0  0  0  0  0  0  0  0  0  0  0  0
    9.7486   -0.0456    0.0000 H   0  0  0  0  0  0  0  0  0  0  0  0
    9.7486    1.6201    0.0000 H   0  0  0  0  0  0  0  0  0  0  0  0
  1  2  1  0  0  0  0
  1  8  1  0  0  0  0
  1 30  1  0  0  0  0
  2  3  1  0  0  0  0
  2  4  1  0  0  0  0
  2  7  1  0  0  0  0
  3  5  1  0  0  0  0
  3 19  1  0  0  0  0
  3 20  1  0  0  0  0
  4  6  1  0  0  0  0
  4 21  1  0  0  0  0
  4 22  1  0  0  0  0
  5  6  1  0  0  0  0
  5 23  1  0  0  0  0
  5 24  1  0  0  0  0
  6 25  1  0  0  0  0
  6 26  1  0  0  0  0
  7 27  1  0  0  0  0
  7 28  1  0  0  0  0
  7 29  1  0  0  0  0
  8  9  1  0  0  0  0
  8 31  1  0  0  0  0
  8 32  1  0  0  0  0
  9 10  2  0  0  0  0
  9 11  1  0  0  0  0
 10 12  1  0  0  0  0
 10 33  1  0  0  0  0
 11 14  2  0  0  0  0
 11 34  1  0  0  0  0
 12 13  1  0  0  0  0
 12 15  2  0  0  0  0
 13 14  1  0  0  0  0
 13 16  2  0  0  0  0
 14 35  1  0  0  0  0
 15 17  1  0  0  0  0
 15 36  1  0  0  0  0
 16 18  1  0  0  0  0
 16 37  1  0  0  0  0
 17 18  2  0  0  0  0
 17 38  1  0  0  0  0
 18 39  1  0  0  0  0
M  END
> <PUBCHEM_COMPOUND_CID>
61364776

> <PUBCHEM_COMPOUND_CANONICALIZED>
1

> <PUBCHEM_CACTVS_COMPLEXITY>
267

> <PUBCHEM_CACTVS_HBOND_ACCEPTOR>
1

> <PUBCHEM_CACTVS_HBOND_DONOR>
1

> <PUBCHEM_CACTVS_ROTATABLE_BOND>
3

> <PUBCHEM_CACTVS_SUBSKEYS>
AAADceB6AAAAAAAAAAAAAAAAAAAAAYAAAAAwYAAAAAAAAADBUAAAHAAQAAAADIjBGAQyAMLAAACAAiBCAACCAAAgAAAIiIAIBIgIICKAkRGEIAhgkACIiAcQgMAOwAACAAAQAACAAAQAACAAAAAAAAAAAA==

> <PUBCHEM_IUPAC_OPENEYE_NAME>
1-methyl-N-(2-naphthylmethyl)cyclopentanamine

> <PUBCHEM_IUPAC_CAS_NAME>
1-methyl-N-(2-naphthalenylmethyl)-1-cyclopentanamine

> <PUBCHEM_IUPAC_NAME>
1-methyl-N-(naphthalen-2-ylmethyl)cyclopentan-1-amine

> <PUBCHEM_IUPAC_SYSTEMATIC_NAME>
1-methyl-N-(naphthalen-2-ylmethyl)cyclopentan-1-amine

> <PUBCHEM_IUPAC_TRADITIONAL_NAME>
(1-methylcyclopentyl)-(2-naphthylmethyl)amine

> <PUBCHEM_IUPAC_INCHI>
InChI=1S/C17H21N/c1-17(10-4-5-11-17)18-13-14-8-9-15-6-2-3-7-16(15)12-14/h2-3,6-9,12,18H,4-5,10-11,13H2,1H3

> <PUBCHEM_IUPAC_INCHIKEY>
UKPYMFKXSZQEMD-UHFFFAOYSA-N

> <PUBCHEM_XLOGP3>
3.9

> <PUBCHEM_EXACT_MASS>
239.1674

> <PUBCHEM_MOLECULAR_FORMULA>
C17H21N

> <PUBCHEM_MOLECULAR_WEIGHT>
239.35534

> <PUBCHEM_OPENEYE_CAN_SMILES>
CC1(CCCC1)NCC2=CC3=CC=CC=C3C=C2

> <PUBCHEM_OPENEYE_ISO_SMILES>
CC1(CCCC1)NCC2=CC3=CC=CC=C3C=C2

> <PUBCHEM_CACTVS_TPSA>
12

> <PUBCHEM_MONOISOTOPIC_WEIGHT>
239.1674

> <PUBCHEM_TOTAL_CHARGE>
0

> <PUBCHEM_HEAVY_ATOM_COUNT>
18

> <PUBCHEM_ATOM_DEF_STEREO_COUNT>
0

> <PUBCHEM_ATOM_UDEF_STEREO_COUNT>
0

> <PUBCHEM_BOND_DEF_STEREO_COUNT>
0

> <PUBCHEM_BOND_UDEF_STEREO_COUNT>
0

> <PUBCHEM_ISOTOPIC_ATOM_COUNT>
0

> <PUBCHEM_COMPONENT_COUNT>
1

> <PUBCHEM_CACTVS_TAUTO_COUNT>
1

> <PUBCHEM_COORDINATE_TYPE>
1
5
255

> <PUBCHEM_BONDANNOTATIONS>
10  12  8
11  14  8
12  13  8
12  15  8
13  14  8
13  16  8
15  17  8
16  18  8
17  18  8
9  10  8
9  11  8

$$$$
61366308
  -OEChem-10201218422D

 35 38  0     1  0  0  0  0  0999 V2000
    4.3211    0.8589    0.0000 O   0  0  0  0  0  0  0  0  0  0  0  0
    4.6783   -2.4454    0.0000 N   0  0  0  0  0  0  0  0  0  0  0  0
    6.8552    1.5237    0.0000 C   0  0  3  0  0  0  0  0  0  0  0  0
    7.8546    1.5568    0.0000 C   0  0  3  0  0  0  0  0  0  0  0  0
    5.9674    0.3208    0.0000 C   0  0  3  0  0  0  0  0  0  0  0  0
    8.6447    0.6167    0.0000 C   0  0  0  0  0  0  0  0  0  0  0  0
    6.8052   -0.2252    0.0000 C   0  0  0  0  0  0  0  0  0  0  0  0
    6.6766    3.0015    0.0000 C   0  0  0  0  0  0  0  0  0  0  0  0
    7.6761    3.0347    0.0000 C   0  0  0  0  0  0  0  0  0  0  0  0
    4.9889    0.1146    0.0000 C   0  0  0  0  0  0  0  0  0  0  0  0
    4.6783   -0.8359    0.0000 C   0  0  0  0  0  0  0  0  0  0  0  0
    3.7320   -1.1406    0.0000 C   0  0  0  0  0  0  0  0  0  0  0  0
    5.2619   -1.6406    0.0000 C   0  0  0  0  0  0  0  0  0  0  0  0
    3.7320   -2.1406    0.0000 C   0  0  0  0  0  0  0  0  0  0  0  0
    2.8660   -0.6406    0.0000 C   0  0  0  0  0  0  0  0  0  0  0  0
    2.8660   -2.6406    0.0000 C   0  0  0  0  0  0  0  0  0  0  0  0
    2.0000   -1.1406    0.0000 C   0  0  0  0  0  0  0  0  0  0  0  0
    2.0000   -2.1406    0.0000 C   0  0  0  0  0  0  0  0  0  0  0  0
    6.2556    1.6817    0.0000 H   0  0  0  0  0  0  0  0  0  0  0  0
    8.4233    1.8037    0.0000 H   0  0  0  0  0  0  0  0  0  0  0  0
    5.6322    0.8424    0.0000 H   0  0  0  0  0  0  0  0  0  0  0  0
    8.5953   -0.0013    0.0000 H   0  0  0  0  0  0  0  0  0  0  0  0
    9.2352    0.8056    0.0000 H   0  0  0  0  0  0  0  0  0  0  0  0
    6.4745   -0.7497    0.0000 H   0  0  0  0  0  0  0  0  0  0  0  0
    7.3346   -0.5479    0.0000 H   0  0  0  0  0  0  0  0  0  0  0  0
    6.6381    3.6203    0.0000 H   0  0  0  0  0  0  0  0  0  0  0  0
    6.0592    2.9450    0.0000 H   0  0  0  0  0  0  0  0  0  0  0  0
    8.2935    3.0912    0.0000 H   0  0  0  0  0  0  0  0  0  0  0  0
    7.6376    3.6535    0.0000 H   0  0  0  0  0  0  0  0  0  0  0  0
    5.8819   -1.6406    0.0000 H   0  0  0  0  0  0  0  0  0  0  0  0
    4.8709   -3.0347    0.0000 H   0  0  0  0  0  0  0  0  0  0  0  0
    2.8660   -0.0206    0.0000 H   0  0  0  0  0  0  0  0  0  0  0  0
    2.8660   -3.2606    0.0000 H   0  0  0  0  0  0  0  0  0  0  0  0
    1.4631   -0.8306    0.0000 H   0  0  0  0  0  0  0  0  0  0  0  0
    1.4631   -2.4506    0.0000 H   0  0  0  0  0  0  0  0  0  0  0  0
  1 10  2  0  0  0  0
  2 13  1  0  0  0  0
  2 14  1  0  0  0  0
  2 31  1  0  0  0  0
  3  5  1  0  0  0  0
  3  6  1  0  0  0  0
  3  8  1  0  0  0  0
  3 19  1  0  0  0  0
  4  6  1  0  0  0  0
  4  7  1  0  0  0  0
  4  9  1  0  0  0  0
  4 20  1  0  0  0  0
  5  7  1  0  0  0  0
  5 10  1  0  0  0  0
  5 21  1  0  0  0  0
  6 22  1  0  0  0  0
  6 23  1  0  0  0  0
  7 24  1  0  0  0  0
  7 25  1  0  0  0  0
  8  9  1  0  0  0  0
  8 26  1  0  0  0  0
  8 27  1  0  0  0  0
  9 28  1  0  0  0  0
  9 29  1  0  0  0  0
 10 11  1  0  0  0  0
 11 12  1  0  0  0  0
 11 13  2  0  0  0  0
 12 14  1  0  0  0  0
 12 15  2  0  0  0  0
 13 30  1  0  0  0  0
 14 16  2  0  0  0  0
 15 17  1  0  0  0  0
 15 32  1  0  0  0  0
 16 18  1  0  0  0  0
 16 33  1  0  0  0  0
 17 18  2  0  0  0  0
 17 34  1  0  0  0  0
 18 35  1  0  0  0  0
M  END
> <PUBCHEM_COMPOUND_CID>
61366308

> <PUBCHEM_COMPOUND_CANONICALIZED>
1

> <PUBCHEM_CACTVS_COMPLEXITY>
353

> <PUBCHEM_CACTVS_HBOND_ACCEPTOR>
1

> <PUBCHEM_CACTVS_HBOND_DONOR>
1

> <PUBCHEM_CACTVS_ROTATABLE_BOND>
2

> <PUBCHEM_CACTVS_SUBSKEYS>
AAADceB6IAAAAAAAAAAAAAAAAAAAAeMEAAAwYAAAAAAAAFgB8AAAHgAQAAAADQzBngQ8wPLJkACoA7R3RACCgCA1AiAI2aE4ZNgIIPrAlZGEIYhgkADIyccciMCOgAAAAAACAAAAAAQAACQAAQAACAAAAA==

> <PUBCHEM_IUPAC_OPENEYE_NAME>
1H-indol-3-yl(norbornan-2-yl)methanone

> <PUBCHEM_IUPAC_CAS_NAME>
3-bicyclo[2.2.1]heptanyl(1H-indol-3-yl)methanone

> <PUBCHEM_IUPAC_NAME>
3-bicyclo[2.2.1]heptanyl(1H-indol-3-yl)methanone

> <PUBCHEM_IUPAC_SYSTEMATIC_NAME>
3-bicyclo[2.2.1]heptanyl(1H-indol-3-yl)methanone

> <PUBCHEM_IUPAC_TRADITIONAL_NAME>
1H-indol-3-yl(2-norbornyl)methanone

> <PUBCHEM_IUPAC_INCHI>
InChI=1S/C16H17NO/c18-16(13-8-10-5-6-11(13)7-10)14-9-17-15-4-2-1-3-12(14)15/h1-4,9-11,13,17H,5-8H2

> <PUBCHEM_IUPAC_INCHIKEY>
QCJMZJAJZMOJPY-UHFFFAOYSA-N

> <PUBCHEM_XLOGP3>
4.1

> <PUBCHEM_EXACT_MASS>
239.131014

> <PUBCHEM_MOLECULAR_FORMULA>
C16H17NO

> <PUBCHEM_MOLECULAR_WEIGHT>
239.31228

> <PUBCHEM_OPENEYE_CAN_SMILES>
C1CC2CC1CC2C(=O)C3=CNC4=CC=CC=C43

> <PUBCHEM_OPENEYE_ISO_SMILES>
C1CC2CC1CC2C(=O)C3=CNC4=CC=CC=C43

> <PUBCHEM_CACTVS_TPSA>
32.9

> <PUBCHEM_MONOISOTOPIC_WEIGHT>
239.131014

> <PUBCHEM_TOTAL_CHARGE>
0

> <PUBCHEM_HEAVY_ATOM_COUNT>
18

> <PUBCHEM_ATOM_DEF_STEREO_COUNT>
0

> <PUBCHEM_ATOM_UDEF_STEREO_COUNT>
3

> <PUBCHEM_BOND_DEF_STEREO_COUNT>
0

> <PUBCHEM_BOND_UDEF_STEREO_COUNT>
0

> <PUBCHEM_ISOTOPIC_ATOM_COUNT>
0

> <PUBCHEM_COMPONENT_COUNT>
1

> <PUBCHEM_CACTVS_TAUTO_COUNT>
5

> <PUBCHEM_COORDINATE_TYPE>
1
5
255

> <PUBCHEM_BONDANNOTATIONS>
11  12  8
11  13  8
12  14  8
12  15  8
14  16  8
15  17  8
16  18  8
17  18  8
2  13  8
2  14  8
3  8  3
4  9  3
5  10  3

$$$$
61367947
  -OEChem-10201218422D

 32 33  0     0  0  0  0  0  0999 V2000
    2.0000   -1.0194    0.0000 Br  0  0  0  0  0  0  0  0  0  0  0  0
    2.8660    0.4806    0.0000 O   0  0  0  0  0  0  0  0  0  0  0  0
    4.5981    0.4806    0.0000 N   0  0  0  0  0  0  0  0  0  0  0  0
    4.5981    1.4806    0.0000 C   0  0  0  0  0  0  0  0  0  0  0  0
    3.5981    1.4806    0.0000 C   0  0  0  0  0  0  0  0  0  0  0  0
    4.9071    2.4316    0.0000 C   0  0  0  0  0  0  0  0  0  0  0  0
    3.2891    2.4316    0.0000 C   0  0  0  0  0  0  0  0  0  0  0  0
    4.0981    3.0194    0.0000 C   0  0  0  0  0  0  0  0  0  0  0  0
    5.5491    1.1716    0.0000 C   0  0  0  0  0  0  0  0  0  0  0  0
    3.7320   -0.0194    0.0000 C   0  0  0  0  0  0  0  0  0  0  0  0
    3.7320   -1.0194    0.0000 C   0  0  0  0  0  0  0  0  0  0  0  0
    2.8660   -1.5194    0.0000 C   0  0  0  0  0  0  0  0  0  0  0  0
    4.5981   -1.5194    0.0000 C   0  0  0  0  0  0  0  0  0  0  0  0
    2.8660   -2.5194    0.0000 C   0  0  0  0  0  0  0  0  0  0  0  0
    4.5981   -2.5194    0.0000 C   0  0  0  0  0  0  0  0  0  0  0  0
    3.7320   -3.0194    0.0000 C   0  0  0  0  0  0  0  0  0  0  0  0
    5.4735    2.1795    0.0000 H   0  0  0  0  0  0  0  0  0  0  0  0
    5.2171    2.9686    0.0000 H   0  0  0  0  0  0  0  0  0  0  0  0
    2.9916    1.3517    0.0000 H   0  0  0  0  0  0  0  0  0  0  0  0
    3.6629    0.8640    0.0000 H   0  0  0  0  0  0  0  0  0  0  0  0
    4.5129    3.4802    0.0000 H   0  0  0  0  0  0  0  0  0  0  0  0
    3.6832    3.4802    0.0000 H   0  0  0  0  0  0  0  0  0  0  0  0
    2.9791    2.9686    0.0000 H   0  0  0  0  0  0  0  0  0  0  0  0
    2.7227    2.1795    0.0000 H   0  0  0  0  0  0  0  0  0  0  0  0
    5.3575    0.5819    0.0000 H   0  0  0  0  0  0  0  0  0  0  0  0
    6.1388    0.9800    0.0000 H   0  0  0  0  0  0  0  0  0  0  0  0
    5.7407    1.7612    0.0000 H   0  0  0  0  0  0  0  0  0  0  0  0
    5.1350    0.1706    0.0000 H   0  0  0  0  0  0  0  0  0  0  0  0
    5.1350   -1.2094    0.0000 H   0  0  0  0  0  0  0  0  0  0  0  0
    2.3291   -2.8294    0.0000 H   0  0  0  0  0  0  0  0  0  0  0  0
    5.1350   -2.8294    0.0000 H   0  0  0  0  0  0  0  0  0  0  0  0
    3.7320   -3.6394    0.0000 H   0  0  0  0  0  0  0  0  0  0  0  0
  1 12  1  0  0  0  0
  2 10  2  0  0  0  0
  3  4  1  0  0  0  0
  3 10  1  0  0  0  0
  3 28  1  0  0  0  0
  4  5  1  0  0  0  0
  4  6  1  0  0  0  0
  4  9  1  0  0  0  0
  5  7  1  0  0  0  0
  5 19  1  0  0  0  0
  5 20  1  0  0  0  0
  6  8  1  0  0  0  0
  6 17  1  0  0  0  0
  6 18  1  0  0  0  0
  7  8  1  0  0  0  0
  7 23  1  0  0  0  0
  7 24  1  0  0  0  0
  8 21  1  0  0  0  0
  8 22  1  0  0  0  0
  9 25  1  0  0  0  0
  9 26  1  0  0  0  0
  9 27  1  0  0  0  0
 10 11  1  0  0  0  0
 11 12  1  0  0  0  0
 11 13  2  0  0  0  0
 12 14  2  0  0  0  0
 13 15  1  0  0  0  0
 13 29  1  0  0  0  0
 14 16  1  0  0  0  0
 14 30  1  0  0  0  0
 15 16  2  0  0  0  0
 15 31  1  0  0  0  0
 16 32  1  0  0  0  0
M  END
> <PUBCHEM_COMPOUND_CID>
61367947

> <PUBCHEM_COMPOUND_CANONICALIZED>
1

> <PUBCHEM_CACTVS_COMPLEXITY>
261

> <PUBCHEM_CACTVS_HBOND_ACCEPTOR>
1

> <PUBCHEM_CACTVS_HBOND_DONOR>
1

> <PUBCHEM_CACTVS_ROTATABLE_BOND>
2

> <PUBCHEM_CACTVS_SUBSKEYS>
AAADceByIAAAEAAAAAAAAAAAAAAAAYAAAAAwAAAAAAAAAAABAAAAHgBQAAABrIiBmAAyAILAAACIAiFSEACCAAAkAAQIiAEABOgIIDKAlRGEIQhglACIi5cYiACOAAAAAAAAgAAAAAAAAAEAAAAAAAAAAA==

> <PUBCHEM_IUPAC_OPENEYE_NAME>
2-bromo-N-(1-methylcyclopentyl)benzamide

> <PUBCHEM_IUPAC_CAS_NAME>
2-bromo-N-(1-methylcyclopentyl)benzamide

> <PUBCHEM_IUPAC_NAME>
2-bromo-N-(1-methylcyclopentyl)benzamide

> <PUBCHEM_IUPAC_SYSTEMATIC_NAME>
2-bromanyl-N-(1-methylcyclopentyl)benzamide

> <PUBCHEM_IUPAC_TRADITIONAL_NAME>
2-bromo-N-(1-methylcyclopentyl)benzamide

> <PUBCHEM_IUPAC_INCHI>
InChI=1S/C13H16BrNO/c1-13(8-4-5-9-13)15-12(16)10-6-2-3-7-11(10)14/h2-3,6-7H,4-5,8-9H2,1H3,(H,15,16)

> <PUBCHEM_IUPAC_INCHIKEY>
UURNHYOMPNPVRA-UHFFFAOYSA-N

> <PUBCHEM_XLOGP3>
2.5

> <PUBCHEM_EXACT_MASS>
281.041526

> <PUBCHEM_MOLECULAR_FORMULA>
C13H16BrNO

> <PUBCHEM_MOLECULAR_WEIGHT>
282.17624

> <PUBCHEM_OPENEYE_CAN_SMILES>
CC1(CCCC1)NC(=O)C2=CC=CC=C2Br

> <PUBCHEM_OPENEYE_ISO_SMILES>
CC1(CCCC1)NC(=O)C2=CC=CC=C2Br

> <PUBCHEM_CACTVS_TPSA>
29.1

> <PUBCHEM_MONOISOTOPIC_WEIGHT>
281.041526

> <PUBCHEM_TOTAL_CHARGE>
0

> <PUBCHEM_HEAVY_ATOM_COUNT>
16

> <PUBCHEM_ATOM_DEF_STEREO_COUNT>
0

> <PUBCHEM_ATOM_UDEF_STEREO_COUNT>
0

> <PUBCHEM_BOND_DEF_STEREO_COUNT>
0

> <PUBCHEM_BOND_UDEF_STEREO_COUNT>
0

> <PUBCHEM_ISOTOPIC_ATOM_COUNT>
0

> <PUBCHEM_COMPONENT_COUNT>
1

> <PUBCHEM_CACTVS_TAUTO_COUNT>
2

> <PUBCHEM_COORDINATE_TYPE>
1
5
255

> <PUBCHEM_BONDANNOTATIONS>
11  12  8
11  13  8
12  14  8
13  15  8
14  16  8
15  16  8

$$$$
61367949
  -OEChem-10201218422D

 42 44  0     0  0  0  0  0  0999 V2000
    5.6103    1.5099    0.0000 O   0  0  0  0  0  0  0  0  0  0  0  0
    7.2566    0.9719    0.0000 N   0  0  0  0  0  0  0  0  0  0  0  0
    4.6783   -2.9511    0.0000 N   0  0  0  0  0  0  0  0  0  0  0  0
    7.5673    1.9224    0.0000 C   0  0  0  0  0  0  0  0  0  0  0  0
    8.1564    2.7304    0.0000 C   0  0  0  0  0  0  0  0  0  0  0  0
    6.6168    2.2330    0.0000 C   0  0  0  0  0  0  0  0  0  0  0  0
    7.5701    3.5404    0.0000 C   0  0  0  0  0  0  0  0  0  0  0  0
    6.6185    3.2330    0.0000 C   0  0  0  0  0  0  0  0  0  0  0  0
    8.3753    1.3332    0.0000 C   0  0  0  0  0  0  0  0  0  0  0  0
    6.2781    0.7656    0.0000 C   0  0  0  0  0  0  0  0  0  0  0  0
    5.9674   -0.1849    0.0000 C   0  0  0  0  0  0  0  0  0  0  0  0
    4.9889   -0.3911    0.0000 C   0  0  0  0  0  0  0  0  0  0  0  0
    4.6783   -1.3416    0.0000 C   0  0  0  0  0  0  0  0  0  0  0  0
    3.7320   -1.6464    0.0000 C   0  0  0  0  0  0  0  0  0  0  0  0
    3.7320   -2.6464    0.0000 C   0  0  0  0  0  0  0  0  0  0  0  0
    5.2619   -2.1464    0.0000 C   0  0  0  0  0  0  0  0  0  0  0  0
    2.8660   -1.1464    0.0000 C   0  0  0  0  0  0  0  0  0  0  0  0
    2.8660   -3.1464    0.0000 C   0  0  0  0  0  0  0  0  0  0  0  0
    2.0000   -1.6464    0.0000 C   0  0  0  0  0  0  0  0  0  0  0  0
    2.0000   -2.6464    0.0000 C   0  0  0  0  0  0  0  0  0  0  0  0
    8.6165    2.3147    0.0000 H   0  0  0  0  0  0  0  0  0  0  0  0
    8.6179    3.1444    0.0000 H   0  0  0  0  0  0  0  0  0  0  0  0
    6.0003    2.2989    0.0000 H   0  0  0  0  0  0  0  0  0  0  0  0
    6.4868    1.6268    0.0000 H   0  0  0  0  0  0  0  0  0  0  0  0
    8.1075    3.8495    0.0000 H   0  0  0  0  0  0  0  0  0  0  0  0
    7.3189    4.1072    0.0000 H   0  0  0  0  0  0  0  0  0  0  0  0
    6.4906    3.8397    0.0000 H   0  0  0  0  0  0  0  0  0  0  0  0
    6.0018    3.1693    0.0000 H   0  0  0  0  0  0  0  0  0  0  0  0
    8.0100    0.8322    0.0000 H   0  0  0  0  0  0  0  0  0  0  0  0
    8.8762    0.9679    0.0000 H   0  0  0  0  0  0  0  0  0  0  0  0
    8.7406    1.8342    0.0000 H   0  0  0  0  0  0  0  0  0  0  0  0
    7.6707    0.5104    0.0000 H   0  0  0  0  0  0  0  0  0  0  0  0
    5.9880   -0.8045    0.0000 H   0  0  0  0  0  0  0  0  0  0  0  0
    6.5812   -0.2722    0.0000 H   0  0  0  0  0  0  0  0  0  0  0  0
    4.9684    0.2286    0.0000 H   0  0  0  0  0  0  0  0  0  0  0  0
    4.3751   -0.3038    0.0000 H   0  0  0  0  0  0  0  0  0  0  0  0
    5.8819   -2.1464    0.0000 H   0  0  0  0  0  0  0  0  0  0  0  0
    4.8709   -3.5404    0.0000 H   0  0  0  0  0  0  0  0  0  0  0  0
    2.8660   -0.5264    0.0000 H   0  0  0  0  0  0  0  0  0  0  0  0
    2.8660   -3.7664    0.0000 H   0  0  0  0  0  0  0  0  0  0  0  0
    1.4631   -1.3364    0.0000 H   0  0  0  0  0  0  0  0  0  0  0  0
    1.4631   -2.9564    0.0000 H   0  0  0  0  0  0  0  0  0  0  0  0
  1 10  2  0  0  0  0
  2  4  1  0  0  0  0
  2 10  1  0  0  0  0
  2 32  1  0  0  0  0
  3 15  1  0  0  0  0
  3 16  1  0  0  0  0
  3 38  1  0  0  0  0
  4  5  1  0  0  0  0
  4  6  1  0  0  0  0
  4  9  1  0  0  0  0
  5  7  1  0  0  0  0
  5 21  1  0  0  0  0
  5 22  1  0  0  0  0
  6  8  1  0  0  0  0
  6 23  1  0  0  0  0
  6 24  1  0  0  0  0
  7  8  1  0  0  0  0
  7 25  1  0  0  0  0
  7 26  1  0  0  0  0
  8 27  1  0  0  0  0
  8 28  1  0  0  0  0
  9 29  1  0  0  0  0
  9 30  1  0  0  0  0
  9 31  1  0  0  0  0
 10 11  1  0  0  0  0
 11 12  1  0  0  0  0
 11 33  1  0  0  0  0
 11 34  1  0  0  0  0
 12 13  1  0  0  0  0
 12 35  1  0  0  0  0
 12 36  1  0  0  0  0
 13 14  1  0  0  0  0
 13 16  2  0  0  0  0
 14 15  1  0  0  0  0
 14 17  2  0  0  0  0
 15 18  2  0  0  0  0
 16 37  1  0  0  0  0
 17 19  1  0  0  0  0
 17 39  1  0  0  0  0
 18 20  1  0  0  0  0
 18 40  1  0  0  0  0
 19 20  2  0  0  0  0
 19 41  1  0  0  0  0
 20 42  1  0  0  0  0
M  END
> <PUBCHEM_COMPOUND_CID>
61367949

> <PUBCHEM_COMPOUND_CANONICALIZED>
1

> <PUBCHEM_CACTVS_COMPLEXITY>
349

> <PUBCHEM_CACTVS_HBOND_ACCEPTOR>
1

> <PUBCHEM_CACTVS_HBOND_DONOR>
2

> <PUBCHEM_CACTVS_ROTATABLE_BOND>
4

> <PUBCHEM_CACTVS_SUBSKEYS>
AAADceB7IAAAAAAAAAAAAAAAAAAAAeIAAAAwAAAAAAAAAFgB8AAAHgAQAAAADIjBngQ+wPLJkACoAzV3VACCgCAxAiAI2aE4ZJgIIPLAkZGEIAhglADIyAcYicCOgAAAAAACAAAAAAAAAAQAAAAAAAAAAA==

> <PUBCHEM_IUPAC_OPENEYE_NAME>
3-(1H-indol-3-yl)-N-(1-methylcyclopentyl)propanamide

> <PUBCHEM_IUPAC_CAS_NAME>
3-(1H-indol-3-yl)-N-(1-methylcyclopentyl)propanamide

> <PUBCHEM_IUPAC_NAME>
3-(1H-indol-3-yl)-N-(1-methylcyclopentyl)propanamide

> <PUBCHEM_IUPAC_SYSTEMATIC_NAME>
3-(1H-indol-3-yl)-N-(1-methylcyclopentyl)propanamide

> <PUBCHEM_IUPAC_TRADITIONAL_NAME>
3-(1H-indol-3-yl)-N-(1-methylcyclopentyl)propionamide

> <PUBCHEM_IUPAC_INCHI>
InChI=1S/C17H22N2O/c1-17(10-4-5-11-17)19-16(20)9-8-13-12-18-15-7-3-2-6-14(13)15/h2-3,6-7,12,18H,4-5,8-11H2,1H3,(H,19,20)

> <PUBCHEM_IUPAC_INCHIKEY>
PHJMTVPJMHHBGF-UHFFFAOYSA-N

> <PUBCHEM_XLOGP3>
3

> <PUBCHEM_EXACT_MASS>
270.173213

> <PUBCHEM_MOLECULAR_FORMULA>
C17H22N2O

> <PUBCHEM_MOLECULAR_WEIGHT>
270.36938

> <PUBCHEM_OPENEYE_CAN_SMILES>
CC1(CCCC1)NC(=O)CCC2=CNC3=CC=CC=C32

> <PUBCHEM_OPENEYE_ISO_SMILES>
CC1(CCCC1)NC(=O)CCC2=CNC3=CC=CC=C32

> <PUBCHEM_CACTVS_TPSA>
44.9

> <PUBCHEM_MONOISOTOPIC_WEIGHT>
270.173213

> <PUBCHEM_TOTAL_CHARGE>
0

> <PUBCHEM_HEAVY_ATOM_COUNT>
20

> <PUBCHEM_ATOM_DEF_STEREO_COUNT>
0

> <PUBCHEM_ATOM_UDEF_STEREO_COUNT>
0

> <PUBCHEM_BOND_DEF_STEREO_COUNT>
0

> <PUBCHEM_BOND_UDEF_STEREO_COUNT>
0

> <PUBCHEM_ISOTOPIC_ATOM_COUNT>
0

> <PUBCHEM_COMPONENT_COUNT>
1

> <PUBCHEM_CACTVS_TAUTO_COUNT>
2

> <PUBCHEM_COORDINATE_TYPE>
1
5
255

> <PUBCHEM_BONDANNOTATIONS>
13  14  8
13  16  8
14  15  8
14  17  8
15  18  8
17  19  8
18  20  8
19  20  8
3  15  8
3  16  8

$$$$
61368333
  -OEChem-10201218422D

 45 47  0     0  0  0  0  0  0999 V2000
    7.9244    0.5000    0.0000 O   0  0  0  0  0  0  0  0  0  0  0  0
    7.5673    2.1948    0.0000 N   0  0  0  0  0  0  0  0  0  0  0  0
    4.6783   -2.6786    0.0000 N   0  0  0  0  0  0  0  0  0  0  0  0
    8.5458    2.4011    0.0000 C   0  0  0  0  0  0  0  0  0  0  0  0
    8.7520    1.4226    0.0000 C   0  0  0  0  0  0  0  0  0  0  0  0
    9.4127    2.8996    0.0000 C   0  0  0  0  0  0  0  0  0  0  0  0
    9.7463    1.3163    0.0000 C   0  0  0  0  0  0  0  0  0  0  0  0
   10.1547    2.2291    0.0000 C   0  0  0  0  0  0  0  0  0  0  0  0
    8.0473    3.2680    0.0000 C   0  0  0  0  0  0  0  0  0  0  0  0
    7.2566    1.2443    0.0000 C   0  0  0  0  0  0  0  0  0  0  0  0
    6.2781    1.0381    0.0000 C   0  0  0  0  0  0  0  0  0  0  0  0
    5.9674    0.0876    0.0000 C   0  0  0  0  0  0  0  0  0  0  0  0
    4.9889   -0.1186    0.0000 C   0  0  0  0  0  0  0  0  0  0  0  0
    4.6783   -1.0692    0.0000 C   0  0  0  0  0  0  0  0  0  0  0  0
    3.7320   -1.3739    0.0000 C   0  0  0  0  0  0  0  0  0  0  0  0
    3.7320   -2.3739    0.0000 C   0  0  0  0  0  0  0  0  0  0  0  0
    5.2619   -1.8739    0.0000 C   0  0  0  0  0  0  0  0  0  0  0  0
    2.8660   -0.8739    0.0000 C   0  0  0  0  0  0  0  0  0  0  0  0
    2.8660   -2.8739    0.0000 C   0  0  0  0  0  0  0  0  0  0  0  0
    2.0000   -1.3739    0.0000 C   0  0  0  0  0  0  0  0  0  0  0  0
    2.0000   -2.3739    0.0000 C   0  0  0  0  0  0  0  0  0  0  0  0
    8.1353    1.3588    0.0000 H   0  0  0  0  0  0  0  0  0  0  0  0
    8.7509    0.8026    0.0000 H   0  0  0  0  0  0  0  0  0  0  0  0
    9.8741    3.3136    0.0000 H   0  0  0  0  0  0  0  0  0  0  0  0
    9.0491    3.4018    0.0000 H   0  0  0  0  0  0  0  0  0  0  0  0
    9.6164    0.7101    0.0000 H   0  0  0  0  0  0  0  0  0  0  0  0
   10.6910    1.9182    0.0000 H   0  0  0  0  0  0  0  0  0  0  0  0
   10.5199    2.7301    0.0000 H   0  0  0  0  0  0  0  0  0  0  0  0
   10.3357    1.1237    0.0000 H   0  0  0  0  0  0  0  0  0  0  0  0
    8.5848    3.5770    0.0000 H   0  0  0  0  0  0  0  0  0  0  0  0
    7.7382    3.8054    0.0000 H   0  0  0  0  0  0  0  0  0  0  0  0
    7.5098    2.9589    0.0000 H   0  0  0  0  0  0  0  0  0  0  0  0
    7.1532    2.6563    0.0000 H   0  0  0  0  0  0  0  0  0  0  0  0
    6.2575    1.6578    0.0000 H   0  0  0  0  0  0  0  0  0  0  0  0
    5.6643    1.1254    0.0000 H   0  0  0  0  0  0  0  0  0  0  0  0
    5.9880   -0.5321    0.0000 H   0  0  0  0  0  0  0  0  0  0  0  0
    6.5812    0.0002    0.0000 H   0  0  0  0  0  0  0  0  0  0  0  0
    4.9684    0.5010    0.0000 H   0  0  0  0  0  0  0  0  0  0  0  0
    4.3751   -0.0313    0.0000 H   0  0  0  0  0  0  0  0  0  0  0  0
    5.8819   -1.8739    0.0000 H   0  0  0  0  0  0  0  0  0  0  0  0
    4.8709   -3.2680    0.0000 H   0  0  0  0  0  0  0  0  0  0  0  0
    2.8660   -0.2539    0.0000 H   0  0  0  0  0  0  0  0  0  0  0  0
    2.8660   -3.4939    0.0000 H   0  0  0  0  0  0  0  0  0  0  0  0
    1.4631   -1.0639    0.0000 H   0  0  0  0  0  0  0  0  0  0  0  0
    1.4631   -2.6839    0.0000 H   0  0  0  0  0  0  0  0  0  0  0  0
  1 10  2  0  0  0  0
  2  4  1  0  0  0  0
  2 10  1  0  0  0  0
  2 33  1  0  0  0  0
  3 16  1  0  0  0  0
  3 17  1  0  0  0  0
  3 41  1  0  0  0  0
  4  5  1  0  0  0  0
  4  6  1  0  0  0  0
  4  9  1  0  0  0  0
  5  7  1  0  0  0  0
  5 22  1  0  0  0  0
  5 23  1  0  0  0  0
  6  8  1  0  0  0  0
  6 24  1  0  0  0  0
  6 25  1  0  0  0  0
  7  8  1  0  0  0  0
  7 26  1  0  0  0  0
  7 29  1  0  0  0  0
  8 27  1  0  0  0  0
  8 28  1  0  0  0  0
  9 30  1  0  0  0  0
  9 31  1  0  0  0  0
  9 32  1  0  0  0  0
 10 11  1  0  0  0  0
 11 12  1  0  0  0  0
 11 34  1  0  0  0  0
 11 35  1  0  0  0  0
 12 13  1  0  0  0  0
 12 36  1  0  0  0  0
 12 37  1  0  0  0  0
 13 14  1  0  0  0  0
 13 38  1  0  0  0  0
 13 39  1  0  0  0  0
 14 15  1  0  0  0  0
 14 17  2  0  0  0  0
 15 16  1  0  0  0  0
 15 18  2  0  0  0  0
 16 19  2  0  0  0  0
 17 40  1  0  0  0  0
 18 20  1  0  0  0  0
 18 42  1  0  0  0  0
 19 21  1  0  0  0  0
 19 43  1  0  0  0  0
 20 21  2  0  0  0  0
 20 44  1  0  0  0  0
 21 45  1  0  0  0  0
M  END
> <PUBCHEM_COMPOUND_CID>
61368333

> <PUBCHEM_COMPOUND_CANONICALIZED>
1

> <PUBCHEM_CACTVS_COMPLEXITY>
362

> <PUBCHEM_CACTVS_HBOND_ACCEPTOR>
1

> <PUBCHEM_CACTVS_HBOND_DONOR>
2

> <PUBCHEM_CACTVS_ROTATABLE_BOND>
5

> <PUBCHEM_CACTVS_SUBSKEYS>
AAADceB7IAAAAAAAAAAAAAAAAAAAAeIAAAAwAAAAAAAAAFgB8AAAHgAQAAAADIjBngQ+wPLJkACoAzV3VACCgCAxAiAI2aE4ZJgIIPLAkZGEIAhglADIyAcYiMCOgAAAAAACAAAAAAAAAAQAAAAAAAAAAA==

> <PUBCHEM_IUPAC_OPENEYE_NAME>
4-(1H-indol-3-yl)-N-(1-methylcyclopentyl)butanamide

> <PUBCHEM_IUPAC_CAS_NAME>
4-(1H-indol-3-yl)-N-(1-methylcyclopentyl)butanamide

> <PUBCHEM_IUPAC_NAME>
4-(1H-indol-3-yl)-N-(1-methylcyclopentyl)butanamide

> <PUBCHEM_IUPAC_SYSTEMATIC_NAME>
4-(1H-indol-3-yl)-N-(1-methylcyclopentyl)butanamide

> <PUBCHEM_IUPAC_TRADITIONAL_NAME>
4-(1H-indol-3-yl)-N-(1-methylcyclopentyl)butyramide

> <PUBCHEM_IUPAC_INCHI>
InChI=1S/C18H24N2O/c1-18(11-4-5-12-18)20-17(21)10-6-7-14-13-19-16-9-3-2-8-15(14)16/h2-3,8-9,13,19H,4-7,10-12H2,1H3,(H,20,21)

> <PUBCHEM_IUPAC_INCHIKEY>
OEGARGDBPZCELV-UHFFFAOYSA-N

> <PUBCHEM_XLOGP3>
3.5

> <PUBCHEM_EXACT_MASS>
284.188863

> <PUBCHEM_MOLECULAR_FORMULA>
C18H24N2O

> <PUBCHEM_MOLECULAR_WEIGHT>
284.39596

> <PUBCHEM_OPENEYE_CAN_SMILES>
CC1(CCCC1)NC(=O)CCCC2=CNC3=CC=CC=C32

> <PUBCHEM_OPENEYE_ISO_SMILES>
CC1(CCCC1)NC(=O)CCCC2=CNC3=CC=CC=C32

> <PUBCHEM_CACTVS_TPSA>
44.9

> <PUBCHEM_MONOISOTOPIC_WEIGHT>
284.188863

> <PUBCHEM_TOTAL_CHARGE>
0

> <PUBCHEM_HEAVY_ATOM_COUNT>
21

> <PUBCHEM_ATOM_DEF_STEREO_COUNT>
0

> <PUBCHEM_ATOM_UDEF_STEREO_COUNT>
0

> <PUBCHEM_BOND_DEF_STEREO_COUNT>
0

> <PUBCHEM_BOND_UDEF_STEREO_COUNT>
0

> <PUBCHEM_ISOTOPIC_ATOM_COUNT>
0

> <PUBCHEM_COMPONENT_COUNT>
1

> <PUBCHEM_CACTVS_TAUTO_COUNT>
2

> <PUBCHEM_COORDINATE_TYPE>
1
5
255

> <PUBCHEM_BONDANNOTATIONS>
14  15  8
14  17  8
15  16  8
15  18  8
16  19  8
18  20  8
19  21  8
20  21  8
3  16  8
3  17  8

$$$$
61368334
  -OEChem-10201218422D

 36 38  0     0  0  0  0  0  0999 V2000
    4.6831    0.6776    0.0000 O   0  0  0  0  0  0  0  0  0  0  0  0
    2.9511    0.6776    0.0000 N   0  0  0  0  0  0  0  0  0  0  0  0
    5.6293   -2.6271    0.0000 N   0  0  0  0  0  0  0  0  0  0  0  0
    2.9511    1.6776    0.0000 C   0  0  0  0  0  0  0  0  0  0  0  0
    3.9511    1.6776    0.0000 C   0  0  0  0  0  0  0  0  0  0  0  0
    2.6420    2.6287    0.0000 C   0  0  0  0  0  0  0  0  0  0  0  0
    4.2601    2.6287    0.0000 C   0  0  0  0  0  0  0  0  0  0  0  0
    3.4511    3.2164    0.0000 C   0  0  0  0  0  0  0  0  0  0  0  0
    2.0000    1.3686    0.0000 C   0  0  0  0  0  0  0  0  0  0  0  0
    3.8171    0.1776    0.0000 C   0  0  0  0  0  0  0  0  0  0  0  0
    3.8171   -0.8224    0.0000 C   0  0  0  0  0  0  0  0  0  0  0  0
    4.6831   -1.3224    0.0000 C   0  0  0  0  0  0  0  0  0  0  0  0
    4.6831   -2.3224    0.0000 C   0  0  0  0  0  0  0  0  0  0  0  0
    2.9511   -1.3224    0.0000 C   0  0  0  0  0  0  0  0  0  0  0  0
    5.6293   -1.0177    0.0000 C   0  0  0  0  0  0  0  0  0  0  0  0
    3.8171   -2.8224    0.0000 C   0  0  0  0  0  0  0  0  0  0  0  0
    2.9511   -2.3224    0.0000 C   0  0  0  0  0  0  0  0  0  0  0  0
    6.2129   -1.8224    0.0000 C   0  0  0  0  0  0  0  0  0  0  0  0
    2.3320    3.1656    0.0000 H   0  0  0  0  0  0  0  0  0  0  0  0
    2.0756    2.3765    0.0000 H   0  0  0  0  0  0  0  0  0  0  0  0
    3.8862    1.0610    0.0000 H   0  0  0  0  0  0  0  0  0  0  0  0
    4.5575    1.5487    0.0000 H   0  0  0  0  0  0  0  0  0  0  0  0
    3.8659    3.6772    0.0000 H   0  0  0  0  0  0  0  0  0  0  0  0
    3.0362    3.6772    0.0000 H   0  0  0  0  0  0  0  0  0  0  0  0
    4.8265    2.3765    0.0000 H   0  0  0  0  0  0  0  0  0  0  0  0
    4.5701    3.1656    0.0000 H   0  0  0  0  0  0  0  0  0  0  0  0
    1.8084    1.9582    0.0000 H   0  0  0  0  0  0  0  0  0  0  0  0
    1.4103    1.1770    0.0000 H   0  0  0  0  0  0  0  0  0  0  0  0
    2.1916    0.7789    0.0000 H   0  0  0  0  0  0  0  0  0  0  0  0
    2.4141    0.3676    0.0000 H   0  0  0  0  0  0  0  0  0  0  0  0
    2.4141   -1.0124    0.0000 H   0  0  0  0  0  0  0  0  0  0  0  0
    5.8219   -0.4283    0.0000 H   0  0  0  0  0  0  0  0  0  0  0  0
    3.8171   -3.4424    0.0000 H   0  0  0  0  0  0  0  0  0  0  0  0
    2.4141   -2.6324    0.0000 H   0  0  0  0  0  0  0  0  0  0  0  0
    5.8219   -3.2164    0.0000 H   0  0  0  0  0  0  0  0  0  0  0  0
    6.8329   -1.8224    0.0000 H   0  0  0  0  0  0  0  0  0  0  0  0
  1 10  2  0  0  0  0
  2  4  1  0  0  0  0
  2 10  1  0  0  0  0
  2 30  1  0  0  0  0
  3 13  1  0  0  0  0
  3 18  1  0  0  0  0
  3 35  1  0  0  0  0
  4  5  1  0  0  0  0
  4  6  1  0  0  0  0
  4  9  1  0  0  0  0
  5  7  1  0  0  0  0
  5 21  1  0  0  0  0
  5 22  1  0  0  0  0
  6  8  1  0  0  0  0
  6 19  1  0  0  0  0
  6 20  1  0  0  0  0
  7  8  1  0  0  0  0
  7 25  1  0  0  0  0
  7 26  1  0  0  0  0
  8 23  1  0  0  0  0
  8 24  1  0  0  0  0
  9 27  1  0  0  0  0
  9 28  1  0  0  0  0
  9 29  1  0  0  0  0
 10 11  1  0  0  0  0
 11 12  2  0  0  0  0
 11 14  1  0  0  0  0
 12 13  1  0  0  0  0
 12 15  1  0  0  0  0
 13 16  2  0  0  0  0
 14 17  2  0  0  0  0
 14 31  1  0  0  0  0
 15 18  2  0  0  0  0
 15 32  1  0  0  0  0
 16 17  1  0  0  0  0
 16 33  1  0  0  0  0
 17 34  1  0  0  0  0
 18 36  1  0  0  0  0
M  END
> <PUBCHEM_COMPOUND_CID>
61368334

> <PUBCHEM_COMPOUND_CANONICALIZED>
1

> <PUBCHEM_CACTVS_COMPLEXITY>
323

> <PUBCHEM_CACTVS_HBOND_ACCEPTOR>
1

> <PUBCHEM_CACTVS_HBOND_DONOR>
2

> <PUBCHEM_CACTVS_ROTATABLE_BOND>
2

> <PUBCHEM_CACTVS_SUBSKEYS>
AAADceBzIAAAAAAAAAAAAAAAAAAAAeIAAAAwAAAAAAAAAFgB8AAAHgAQAAAADIjBngQ+wPLJkACoAzV3VACCgCA1AiAI2aE4ZNgIIPLAlZGEIQhglADIyYcciYCOgAAAQAASAAAAAACAACQAAAAAAAAAAA==

> <PUBCHEM_IUPAC_OPENEYE_NAME>
N-(1-methylcyclopentyl)-1H-indole-4-carboxamide

> <PUBCHEM_IUPAC_CAS_NAME>
N-(1-methylcyclopentyl)-1H-indole-4-carboxamide

> <PUBCHEM_IUPAC_NAME>
N-(1-methylcyclopentyl)-1H-indole-4-carboxamide

> <PUBCHEM_IUPAC_SYSTEMATIC_NAME>
N-(1-methylcyclopentyl)-1H-indole-4-carboxamide

> <PUBCHEM_IUPAC_TRADITIONAL_NAME>
N-(1-methylcyclopentyl)-1H-indole-4-carboxamide

> <PUBCHEM_IUPAC_INCHI>
InChI=1S/C15H18N2O/c1-15(8-2-3-9-15)17-14(18)12-5-4-6-13-11(12)7-10-16-13/h4-7,10,16H,2-3,8-9H2,1H3,(H,17,18)

> <PUBCHEM_IUPAC_INCHIKEY>
MDRYRNDWELDYMX-UHFFFAOYSA-N

> <PUBCHEM_XLOGP3>
2.5

> <PUBCHEM_EXACT_MASS>
242.141913

> <PUBCHEM_MOLECULAR_FORMULA>
C15H18N2O

> <PUBCHEM_MOLECULAR_WEIGHT>
242.31622

> <PUBCHEM_OPENEYE_CAN_SMILES>
CC1(CCCC1)NC(=O)C2=C3C=CNC3=CC=C2

> <PUBCHEM_OPENEYE_ISO_SMILES>
CC1(CCCC1)NC(=O)C2=C3C=CNC3=CC=C2

> <PUBCHEM_CACTVS_TPSA>
44.9

> <PUBCHEM_MONOISOTOPIC_WEIGHT>
242.141913

> <PUBCHEM_TOTAL_CHARGE>
0

> <PUBCHEM_HEAVY_ATOM_COUNT>
18

> <PUBCHEM_ATOM_DEF_STEREO_COUNT>
0

> <PUBCHEM_ATOM_UDEF_STEREO_COUNT>
0

> <PUBCHEM_BOND_DEF_STEREO_COUNT>
0

> <PUBCHEM_BOND_UDEF_STEREO_COUNT>
0

> <PUBCHEM_ISOTOPIC_ATOM_COUNT>
0

> <PUBCHEM_COMPONENT_COUNT>
1

> <PUBCHEM_CACTVS_TAUTO_COUNT>
5

> <PUBCHEM_COORDINATE_TYPE>
1
5
255

> <PUBCHEM_BONDANNOTATIONS>
11  12  8
11  14  8
12  13  8
12  15  8
13  16  8
14  17  8
15  18  8
16  17  8
3  13  8
3  18  8

$$$$
