63626726
  -OEChem-11301218222D

 27 28  0     1  0  0  0  0  0999 V2000
    8.1282    1.3168    0.0000 Br  0  0  0  0  0  0  0  0  0  0  0  0
    2.8660   -0.7073    0.0000 N   0  0  0  0  0  0  0  0  0  0  0  0
    3.7320   -0.2073    0.0000 C   0  0  3  0  0  0  0  0  0  0  0  0
    3.7320    0.7927    0.0000 C   0  0  0  0  0  0  0  0  0  0  0  0
    4.5981   -0.7073    0.0000 C   0  0  0  0  0  0  0  0  0  0  0  0
    4.5981    1.2927    0.0000 C   0  0  0  0  0  0  0  0  0  0  0  0
    5.4641   -0.2073    0.0000 C   0  0  0  0  0  0  0  0  0  0  0  0
    5.4641    0.7927    0.0000 C   0  0  0  0  0  0  0  0  0  0  0  0
    6.3580   -0.7420    0.0000 C   0  0  0  0  0  0  0  0  0  0  0  0
    6.3580    1.3273    0.0000 C   0  0  0  0  0  0  0  0  0  0  0  0
    2.0000   -0.2073    0.0000 C   0  0  0  0  0  0  0  0  0  0  0  0
    7.2641   -0.2281    0.0000 C   0  0  0  0  0  0  0  0  0  0  0  0
    7.2641    0.8135    0.0000 C   0  0  0  0  0  0  0  0  0  0  0  0
    3.7320   -0.8273    0.0000 H   0  0  0  0  0  0  0  0  0  0  0  0
    3.5200    1.3753    0.0000 H   0  0  0  0  0  0  0  0  0  0  0  0
    3.1215    0.6850    0.0000 H   0  0  0  0  0  0  0  0  0  0  0  0
    4.1996   -1.1823    0.0000 H   0  0  0  0  0  0  0  0  0  0  0  0
    4.9966   -1.1823    0.0000 H   0  0  0  0  0  0  0  0  0  0  0  0
    4.9966    1.7676    0.0000 H   0  0  0  0  0  0  0  0  0  0  0  0
    4.1996    1.7676    0.0000 H   0  0  0  0  0  0  0  0  0  0  0  0
    2.8660   -1.3273    0.0000 H   0  0  0  0  0  0  0  0  0  0  0  0
    6.3509   -1.3620    0.0000 H   0  0  0  0  0  0  0  0  0  0  0  0
    6.3509    1.9473    0.0000 H   0  0  0  0  0  0  0  0  0  0  0  0
    2.3100    0.3296    0.0000 H   0  0  0  0  0  0  0  0  0  0  0  0
    1.4631    0.1027    0.0000 H   0  0  0  0  0  0  0  0  0  0  0  0
    1.6900   -0.7443    0.0000 H   0  0  0  0  0  0  0  0  0  0  0  0
    7.7998   -0.5402    0.0000 H   0  0  0  0  0  0  0  0  0  0  0  0
  1 13  1  0  0  0  0
  2  3  1  0  0  0  0
  2 11  1  0  0  0  0
  2 21  1  0  0  0  0
  3  4  1  0  0  0  0
  3  5  1  0  0  0  0
  3 14  1  0  0  0  0
  4  6  1  0  0  0  0
  4 15  1  0  0  0  0
  4 16  1  0  0  0  0
  5  7  1  0  0  0  0
  5 17  1  0  0  0  0
  5 18  1  0  0  0  0
  6  8  1  0  0  0  0
  6 19  1  0  0  0  0
  6 20  1  0  0  0  0
  7  8  2  0  0  0  0
  7  9  1  0  0  0  0
  8 10  1  0  0  0  0
  9 12  2  0  0  0  0
  9 22  1  0  0  0  0
 10 13  2  0  0  0  0
 10 23  1  0  0  0  0
 11 24  1  0  0  0  0
 11 25  1  0  0  0  0
 11 26  1  0  0  0  0
 12 13  1  0  0  0  0
 12 27  1  0  0  0  0
M  END
> <PUBCHEM_COMPOUND_CID>
63626726

> <PUBCHEM_COMPOUND_CANONICALIZED>
1

> <PUBCHEM_CACTVS_COMPLEXITY>
172

> <PUBCHEM_CACTVS_HBOND_ACCEPTOR>
1

> <PUBCHEM_CACTVS_HBOND_DONOR>
1

> <PUBCHEM_CACTVS_ROTATABLE_BOND>
1

> <PUBCHEM_CACTVS_SUBSKEYS>
AAADccByAAAAEAAAAAAAAAAAAAAAAAAAAAAwYAAAAAAAAADBAAAAHABQAAABrCjBGAQyAILAAACAAiBCAAACAAAgAAQIiIAIAKgIICKAkRGEIAAgkAAIihcQgIAOggAAEAAQAAAUAACgACAAAAAAAAAAAA==

> <PUBCHEM_IUPAC_OPENEYE_NAME>
6-bromo-N-methyl-tetralin-2-amine

> <PUBCHEM_IUPAC_CAS_NAME>
6-bromo-N-methyl-1,2,3,4-tetrahydronaphthalen-2-amine

> <PUBCHEM_IUPAC_NAME>
6-bromo-N-methyl-1,2,3,4-tetrahydronaphthalen-2-amine

> <PUBCHEM_IUPAC_SYSTEMATIC_NAME>
6-bromanyl-N-methyl-1,2,3,4-tetrahydronaphthalen-2-amine

> <PUBCHEM_IUPAC_TRADITIONAL_NAME>
(6-bromotetralin-2-yl)-methyl-amine

> <PUBCHEM_IUPAC_INCHI>
InChI=1S/C11H14BrN/c1-13-11-5-3-8-6-10(12)4-2-9(8)7-11/h2,4,6,11,13H,3,5,7H2,1H3

> <PUBCHEM_IUPAC_INCHIKEY>
HLHBGIWMLLVEGK-UHFFFAOYSA-N

> <PUBCHEM_XLOGP3>
3.1

> <PUBCHEM_EXACT_MASS>
239.030962

> <PUBCHEM_MOLECULAR_FORMULA>
C11H14BrN

> <PUBCHEM_MOLECULAR_WEIGHT>
240.13956

> <PUBCHEM_OPENEYE_CAN_SMILES>
CNC1CCC2=C(C1)C=CC(=C2)Br

> <PUBCHEM_OPENEYE_ISO_SMILES>
CNC1CCC2=C(C1)C=CC(=C2)Br

> <PUBCHEM_CACTVS_TPSA>
12

> <PUBCHEM_MONOISOTOPIC_WEIGHT>
239.030962

> <PUBCHEM_TOTAL_CHARGE>
0

> <PUBCHEM_HEAVY_ATOM_COUNT>
13

> <PUBCHEM_ATOM_DEF_STEREO_COUNT>
0

> <PUBCHEM_ATOM_UDEF_STEREO_COUNT>
1

> <PUBCHEM_BOND_DEF_STEREO_COUNT>
0

> <PUBCHEM_BOND_UDEF_STEREO_COUNT>
0

> <PUBCHEM_ISOTOPIC_ATOM_COUNT>
0

> <PUBCHEM_COMPONENT_COUNT>
1

> <PUBCHEM_CACTVS_TAUTO_COUNT>
1

> <PUBCHEM_COORDINATE_TYPE>
1
5
255

> <PUBCHEM_BONDANNOTATIONS>
10  13  8
12  13  8
3  2  3
7  8  8
7  9  8
8  10  8
9  12  8

$$$$
63626890
  -OEChem-11301218222D

 39 41  0     1  0  0  0  0  0999 V2000
    6.8764    1.1083    0.0000 O   0  0  0  0  0  0  0  0  0  0  0  0
    5.1444    1.1083    0.0000 N   0  0  0  0  0  0  0  0  0  0  0  0
    7.8226   -2.1964    0.0000 N   0  0  0  0  0  0  0  0  0  0  0  0
    2.9972    1.7706    0.0000 C   0  0  3  0  0  0  0  0  0  0  0  0
    3.4972    2.6367    0.0000 C   0  0  0  0  0  0  0  0  0  0  0  0
    3.3625    0.8398    0.0000 C   0  0  0  0  0  0  0  0  0  0  0  0
    4.4860    2.7857    0.0000 C   0  0  0  0  0  0  0  0  0  0  0  0
    4.3181    0.5450    0.0000 C   0  0  0  0  0  0  0  0  0  0  0  0
    5.2191    2.1055    0.0000 C   0  0  0  0  0  0  0  0  0  0  0  0
    2.0000    1.8454    0.0000 C   0  0  0  0  0  0  0  0  0  0  0  0
    6.0104    0.6083    0.0000 C   0  0  0  0  0  0  0  0  0  0  0  0
    6.0104   -0.3917    0.0000 C   0  0  0  0  0  0  0  0  0  0  0  0
    6.8764   -0.8917    0.0000 C   0  0  0  0  0  0  0  0  0  0  0  0
    6.8764   -1.8917    0.0000 C   0  0  0  0  0  0  0  0  0  0  0  0
    5.1444   -0.8917    0.0000 C   0  0  0  0  0  0  0  0  0  0  0  0
    7.8226   -0.5869    0.0000 C   0  0  0  0  0  0  0  0  0  0  0  0
    6.0104   -2.3917    0.0000 C   0  0  0  0  0  0  0  0  0  0  0  0
    5.1444   -1.8917    0.0000 C   0  0  0  0  0  0  0  0  0  0  0  0
    8.4062   -1.3917    0.0000 C   0  0  0  0  0  0  0  0  0  0  0  0
    2.6290    1.2718    0.0000 H   0  0  0  0  0  0  0  0  0  0  0  0
    3.5435    3.2549    0.0000 H   0  0  0  0  0  0  0  0  0  0  0  0
    2.9048    2.8194    0.0000 H   0  0  0  0  0  0  0  0  0  0  0  0
    2.7495    0.7474    0.0000 H   0  0  0  0  0  0  0  0  0  0  0  0
    3.3162    0.2215    0.0000 H   0  0  0  0  0  0  0  0  0  0  0  0
    4.9983    3.1350    0.0000 H   0  0  0  0  0  0  0  0  0  0  0  0
    4.2595    3.3629    0.0000 H   0  0  0  0  0  0  0  0  0  0  0  0
    4.0081    0.0081    0.0000 H   0  0  0  0  0  0  0  0  0  0  0  0
    4.7726    0.1233    0.0000 H   0  0  0  0  0  0  0  0  0  0  0  0
    5.8115    1.9228    0.0000 H   0  0  0  0  0  0  0  0  0  0  0  0
    5.5291    2.6425    0.0000 H   0  0  0  0  0  0  0  0  0  0  0  0
    2.0463    2.4636    0.0000 H   0  0  0  0  0  0  0  0  0  0  0  0
    1.3817    1.8917    0.0000 H   0  0  0  0  0  0  0  0  0  0  0  0
    1.9537    1.2271    0.0000 H   0  0  0  0  0  0  0  0  0  0  0  0
    4.6074   -0.5817    0.0000 H   0  0  0  0  0  0  0  0  0  0  0  0
    8.0152    0.0024    0.0000 H   0  0  0  0  0  0  0  0  0  0  0  0
    6.0104   -3.0117    0.0000 H   0  0  0  0  0  0  0  0  0  0  0  0
    4.6074   -2.2017    0.0000 H   0  0  0  0  0  0  0  0  0  0  0  0
    8.0152   -2.7857    0.0000 H   0  0  0  0  0  0  0  0  0  0  0  0
    9.0262   -1.3917    0.0000 H   0  0  0  0  0  0  0  0  0  0  0  0
  1 11  2  0  0  0  0
  2  8  1  0  0  0  0
  2  9  1  0  0  0  0
  2 11  1  0  0  0  0
  3 14  1  0  0  0  0
  3 19  1  0  0  0  0
  3 38  1  0  0  0  0
  4  5  1  0  0  0  0
  4  6  1  0  0  0  0
  4 10  1  0  0  0  0
  4 20  1  0  0  0  0
  5  7  1  0  0  0  0
  5 21  1  0  0  0  0
  5 22  1  0  0  0  0
  6  8  1  0  0  0  0
  6 23  1  0  0  0  0
  6 24  1  0  0  0  0
  7  9  1  0  0  0  0
  7 25  1  0  0  0  0
  7 26  1  0  0  0  0
  8 27  1  0  0  0  0
  8 28  1  0  0  0  0
  9 29  1  0  0  0  0
  9 30  1  0  0  0  0
 10 31  1  0  0  0  0
 10 32  1  0  0  0  0
 10 33  1  0  0  0  0
 11 12  1  0  0  0  0
 12 13  2  0  0  0  0
 12 15  1  0  0  0  0
 13 14  1  0  0  0  0
 13 16  1  0  0  0  0
 14 17  2  0  0  0  0
 15 18  2  0  0  0  0
 15 34  1  0  0  0  0
 16 19  2  0  0  0  0
 16 35  1  0  0  0  0
 17 18  1  0  0  0  0
 17 36  1  0  0  0  0
 18 37  1  0  0  0  0
 19 39  1  0  0  0  0
M  END
> <PUBCHEM_COMPOUND_CID>
63626890

> <PUBCHEM_COMPOUND_CANONICALIZED>
1

> <PUBCHEM_CACTVS_COMPLEXITY>
331

> <PUBCHEM_CACTVS_HBOND_ACCEPTOR>
1

> <PUBCHEM_CACTVS_HBOND_DONOR>
1

> <PUBCHEM_CACTVS_ROTATABLE_BOND>
1

> <PUBCHEM_CACTVS_SUBSKEYS>
AAADceB7IAAAAAAAAAAAAAAAAAAAAWAAAAAwAAAABYAAAFgB8AAAHgAQAAAADQjBngQ+wPPJkACoAzV3VACCgCA1AiAI2aE4ZNgIIPLAlZGEIQhglgDIyYcciYCOgAAAQAASAAAAAACAACQAAAAAAAAAAA==

> <PUBCHEM_IUPAC_OPENEYE_NAME>
1H-indol-4-yl-(4-methylazepan-1-yl)methanone

> <PUBCHEM_IUPAC_CAS_NAME>
1H-indol-4-yl-(4-methyl-1-azepanyl)methanone

> <PUBCHEM_IUPAC_NAME>
1H-indol-4-yl-(4-methylazepan-1-yl)methanone

> <PUBCHEM_IUPAC_SYSTEMATIC_NAME>
1H-indol-4-yl-(4-methylazepan-1-yl)methanone

> <PUBCHEM_IUPAC_TRADITIONAL_NAME>
1H-indol-4-yl-(4-methylazepan-1-yl)methanone

> <PUBCHEM_IUPAC_INCHI>
InChI=1S/C16H20N2O/c1-12-4-3-10-18(11-8-12)16(19)14-5-2-6-15-13(14)7-9-17-15/h2,5-7,9,12,17H,3-4,8,10-11H2,1H3

> <PUBCHEM_IUPAC_INCHIKEY>
MCKLHPMFKYGCOQ-UHFFFAOYSA-N

> <PUBCHEM_XLOGP3>
2.9

> <PUBCHEM_EXACT_MASS>
256.157563

> <PUBCHEM_MOLECULAR_FORMULA>
C16H20N2O

> <PUBCHEM_MOLECULAR_WEIGHT>
256.3428

> <PUBCHEM_OPENEYE_CAN_SMILES>
CC1CCCN(CC1)C(=O)C2=C3C=CNC3=CC=C2

> <PUBCHEM_OPENEYE_ISO_SMILES>
CC1CCCN(CC1)C(=O)C2=C3C=CNC3=CC=C2

> <PUBCHEM_CACTVS_TPSA>
36.1

> <PUBCHEM_MONOISOTOPIC_WEIGHT>
256.157563

> <PUBCHEM_TOTAL_CHARGE>
0

> <PUBCHEM_HEAVY_ATOM_COUNT>
19

> <PUBCHEM_ATOM_DEF_STEREO_COUNT>
0

> <PUBCHEM_ATOM_UDEF_STEREO_COUNT>
1

> <PUBCHEM_BOND_DEF_STEREO_COUNT>
0

> <PUBCHEM_BOND_UDEF_STEREO_COUNT>
0

> <PUBCHEM_ISOTOPIC_ATOM_COUNT>
0

> <PUBCHEM_COMPONENT_COUNT>
1

> <PUBCHEM_CACTVS_TAUTO_COUNT>
3

> <PUBCHEM_COORDINATE_TYPE>
1
5
255

> <PUBCHEM_BONDANNOTATIONS>
12  13  8
12  15  8
13  14  8
13  16  8
14  17  8
15  18  8
16  19  8
17  18  8
3  14  8
3  19  8
4  10  3

$$$$
