53526771
  -OEChem-11301218042D

 25 25  0     0  0  0  0  0  0999 V2000
    3.7320    2.1900    0.0000 O   0  0  0  0  0  0  0  0  0  0  0  0
    5.4641    2.1900    0.0000 N   0  0  0  0  0  0  0  0  0  0  0  0
    3.7320    0.1900    0.0000 C   0  0  0  0  0  0  0  0  0  0  0  0
    3.7320   -0.8100    0.0000 C   0  0  0  0  0  0  0  0  0  0  0  0
    4.5981    0.6900    0.0000 C   0  0  0  0  0  0  0  0  0  0  0  0
    2.8660   -1.3100    0.0000 C   0  0  0  0  0  0  0  0  0  0  0  0
    2.8660   -2.3100    0.0000 C   0  0  0  0  0  0  0  0  0  0  0  0
    4.5981   -1.3100    0.0000 C   0  0  0  0  0  0  0  0  0  0  0  0
    3.7320   -2.8100    0.0000 C   0  0  0  0  0  0  0  0  0  0  0  0
    4.5981   -2.3100    0.0000 C   0  0  0  0  0  0  0  0  0  0  0  0
    4.5981    1.6900    0.0000 C   0  0  0  0  0  0  0  0  0  0  0  0
    2.0000   -2.8100    0.0000 C   0  0  0  0  0  0  0  0  0  0  0  0
    3.5200    0.7726    0.0000 H   0  0  0  0  0  0  0  0  0  0  0  0
    3.1215    0.0823    0.0000 H   0  0  0  0  0  0  0  0  0  0  0  0
    4.8101    0.1074    0.0000 H   0  0  0  0  0  0  0  0  0  0  0  0
    5.2087    0.7977    0.0000 H   0  0  0  0  0  0  0  0  0  0  0  0
    2.3291   -1.0000    0.0000 H   0  0  0  0  0  0  0  0  0  0  0  0
    5.1350   -1.0000    0.0000 H   0  0  0  0  0  0  0  0  0  0  0  0
    3.7320   -3.4300    0.0000 H   0  0  0  0  0  0  0  0  0  0  0  0
    5.1350   -2.6200    0.0000 H   0  0  0  0  0  0  0  0  0  0  0  0
    1.6900   -2.2731    0.0000 H   0  0  0  0  0  0  0  0  0  0  0  0
    1.4631   -3.1200    0.0000 H   0  0  0  0  0  0  0  0  0  0  0  0
    2.3100   -3.3469    0.0000 H   0  0  0  0  0  0  0  0  0  0  0  0
    5.4641    2.8100    0.0000 H   0  0  0  0  0  0  0  0  0  0  0  0
    6.0010    1.8800    0.0000 H   0  0  0  0  0  0  0  0  0  0  0  0
  1 11  2  0  0  0  0
  2 11  1  0  0  0  0
  2 24  1  0  0  0  0
  2 25  1  0  0  0  0
  3  4  1  0  0  0  0
  3  5  1  0  0  0  0
  3 13  1  0  0  0  0
  3 14  1  0  0  0  0
  4  6  1  0  0  0  0
  4  8  2  0  0  0  0
  5 11  1  0  0  0  0
  5 15  1  0  0  0  0
  5 16  1  0  0  0  0
  6  7  2  0  0  0  0
  6 17  1  0  0  0  0
  7  9  1  0  0  0  0
  7 12  1  0  0  0  0
  8 10  1  0  0  0  0
  8 18  1  0  0  0  0
  9 10  2  0  0  0  0
  9 19  1  0  0  0  0
 10 20  1  0  0  0  0
 12 21  1  0  0  0  0
 12 22  1  0  0  0  0
 12 23  1  0  0  0  0
M  END
> <PUBCHEM_COMPOUND_CID>
53526771

> <PUBCHEM_COMPOUND_CANONICALIZED>
1

> <PUBCHEM_CACTVS_COMPLEXITY>
156

> <PUBCHEM_CACTVS_HBOND_ACCEPTOR>
1

> <PUBCHEM_CACTVS_HBOND_DONOR>
1

> <PUBCHEM_CACTVS_ROTATABLE_BOND>
3

> <PUBCHEM_CACTVS_SUBSKEYS>
AAADccByIAAAAAAAAAAAAAAAAAAAAAAAAAAwAAAAAAAAAAABAAAAHgAQAAAADACBmAAyAIBAAACIAiFSEAACAAAgAAAIiAEAAIgIIDKAkRCAIAAgkAAIiAcYiMCOAAACAAAAAAAAAAQAAAAAAAAAAAAAAA==

> <PUBCHEM_IUPAC_OPENEYE_NAME>
3-(m-tolyl)propanamide

> <PUBCHEM_IUPAC_CAS_NAME>
3-(3-methylphenyl)propanamide

> <PUBCHEM_IUPAC_NAME>
3-(3-methylphenyl)propanamide

> <PUBCHEM_IUPAC_SYSTEMATIC_NAME>
3-(3-methylphenyl)propanamide

> <PUBCHEM_IUPAC_TRADITIONAL_NAME>
3-(m-tolyl)propionamide

> <PUBCHEM_IUPAC_INCHI>
InChI=1S/C10H13NO/c1-8-3-2-4-9(7-8)5-6-10(11)12/h2-4,7H,5-6H2,1H3,(H2,11,12)

> <PUBCHEM_IUPAC_INCHIKEY>
DREWJJJCTCFEMR-UHFFFAOYSA-N

> <PUBCHEM_XLOGP3>
1.3

> <PUBCHEM_EXACT_MASS>
163.099714

> <PUBCHEM_MOLECULAR_FORMULA>
C10H13NO

> <PUBCHEM_MOLECULAR_WEIGHT>
163.21632

> <PUBCHEM_OPENEYE_CAN_SMILES>
CC1=CC(=CC=C1)CCC(=O)N

> <PUBCHEM_OPENEYE_ISO_SMILES>
CC1=CC(=CC=C1)CCC(=O)N

> <PUBCHEM_CACTVS_TPSA>
43.1

> <PUBCHEM_MONOISOTOPIC_WEIGHT>
163.099714

> <PUBCHEM_TOTAL_CHARGE>
0

> <PUBCHEM_HEAVY_ATOM_COUNT>
12

> <PUBCHEM_ATOM_DEF_STEREO_COUNT>
0

> <PUBCHEM_ATOM_UDEF_STEREO_COUNT>
0

> <PUBCHEM_BOND_DEF_STEREO_COUNT>
0

> <PUBCHEM_BOND_UDEF_STEREO_COUNT>
0

> <PUBCHEM_ISOTOPIC_ATOM_COUNT>
0

> <PUBCHEM_COMPONENT_COUNT>
1

> <PUBCHEM_CACTVS_TAUTO_COUNT>
3

> <PUBCHEM_COORDINATE_TYPE>
1
5
255

> <PUBCHEM_BONDANNOTATIONS>
4  6  8
4  8  8
6  7  8
7  9  8
8  10  8
9  10  8

$$$$
53527538
  -OEChem-11301218042D

 42 42  0     1  0  0  0  0  0999 V2000
    5.4641   -3.7500    0.0000 Cl  0  0  0  0  0  0  0  0  0  0  0  0
    5.4641   -0.7500    0.0000 O   0  0  0  0  0  0  0  0  0  0  0  0
    4.5981    0.7500    0.0000 N   0  0  0  0  0  0  0  0  0  0  0  0
    3.7320   -0.7500    0.0000 N   0  0  0  0  0  0  0  0  0  0  0  0
    5.4641    1.2500    0.0000 C   0  0  3  0  0  0  0  0  0  0  0  0
    5.4641    2.2500    0.0000 C   0  0  0  0  0  0  0  0  0  0  0  0
    6.3301    2.7500    0.0000 C   0  0  0  0  0  0  0  0  0  0  0  0
    6.3301    0.7500    0.0000 C   0  0  0  0  0  0  0  0  0  0  0  0
    6.3301    3.7500    0.0000 C   0  0  0  0  0  0  0  0  0  0  0  0
    7.1962    2.2500    0.0000 C   0  0  0  0  0  0  0  0  0  0  0  0
    3.7320    1.2500    0.0000 C   0  0  0  0  0  0  0  0  0  0  0  0
    4.5981   -0.2500    0.0000 C   0  0  0  0  0  0  0  0  0  0  0  0
    3.7320   -1.7500    0.0000 C   0  0  0  0  0  0  0  0  0  0  0  0
    2.8660   -2.2500    0.0000 C   0  0  0  0  0  0  0  0  0  0  0  0
    4.5981   -2.2500    0.0000 C   0  0  0  0  0  0  0  0  0  0  0  0
    2.8660   -3.2500    0.0000 C   0  0  0  0  0  0  0  0  0  0  0  0
    2.0000   -1.7500    0.0000 C   0  0  0  0  0  0  0  0  0  0  0  0
    4.5981   -3.2500    0.0000 C   0  0  0  0  0  0  0  0  0  0  0  0
    3.7320   -3.7500    0.0000 C   0  0  0  0  0  0  0  0  0  0  0  0
    5.4641    0.6300    0.0000 H   0  0  0  0  0  0  0  0  0  0  0  0
    5.2520    2.8326    0.0000 H   0  0  0  0  0  0  0  0  0  0  0  0
    4.8535    2.1423    0.0000 H   0  0  0  0  0  0  0  0  0  0  0  0
    6.8671    3.0600    0.0000 H   0  0  0  0  0  0  0  0  0  0  0  0
    6.0201    0.2131    0.0000 H   0  0  0  0  0  0  0  0  0  0  0  0
    6.8671    0.4400    0.0000 H   0  0  0  0  0  0  0  0  0  0  0  0
    6.6401    1.2869    0.0000 H   0  0  0  0  0  0  0  0  0  0  0  0
    6.8862    1.7131    0.0000 H   0  0  0  0  0  0  0  0  0  0  0  0
    7.7331    1.9400    0.0000 H   0  0  0  0  0  0  0  0  0  0  0  0
    7.5062    2.7869    0.0000 H   0  0  0  0  0  0  0  0  0  0  0  0
    6.9501    3.7500    0.0000 H   0  0  0  0  0  0  0  0  0  0  0  0
    6.3301    4.3700    0.0000 H   0  0  0  0  0  0  0  0  0  0  0  0
    5.7101    3.7500    0.0000 H   0  0  0  0  0  0  0  0  0  0  0  0
    4.0420    1.7869    0.0000 H   0  0  0  0  0  0  0  0  0  0  0  0
    3.1951    1.5600    0.0000 H   0  0  0  0  0  0  0  0  0  0  0  0
    3.4220    0.7131    0.0000 H   0  0  0  0  0  0  0  0  0  0  0  0
    3.1951   -0.4400    0.0000 H   0  0  0  0  0  0  0  0  0  0  0  0
    5.1350   -1.9400    0.0000 H   0  0  0  0  0  0  0  0  0  0  0  0
    2.3291   -3.5600    0.0000 H   0  0  0  0  0  0  0  0  0  0  0  0
    2.3100   -1.2131    0.0000 H   0  0  0  0  0  0  0  0  0  0  0  0
    1.4631   -1.4400    0.0000 H   0  0  0  0  0  0  0  0  0  0  0  0
    1.6900   -2.2869    0.0000 H   0  0  0  0  0  0  0  0  0  0  0  0
    3.7320   -4.3700    0.0000 H   0  0  0  0  0  0  0  0  0  0  0  0
  1 18  1  0  0  0  0
  2 12  2  0  0  0  0
  3  5  1  0  0  0  0
  3 11  1  0  0  0  0
  3 12  1  0  0  0  0
  4 12  1  0  0  0  0
  4 13  1  0  0  0  0
  4 36  1  0  0  0  0
  5  6  1  0  0  0  0
  5  8  1  0  0  0  0
  5 20  1  0  0  0  0
  6  7  1  0  0  0  0
  6 21  1  0  0  0  0
  6 22  1  0  0  0  0
  7  9  1  0  0  0  0
  7 10  1  0  0  0  0
  7 23  1  0  0  0  0
  8 24  1  0  0  0  0
  8 25  1  0  0  0  0
  8 26  1  0  0  0  0
  9 30  1  0  0  0  0
  9 31  1  0  0  0  0
  9 32  1  0  0  0  0
 10 27  1  0  0  0  0
 10 28  1  0  0  0  0
 10 29  1  0  0  0  0
 11 33  1  0  0  0  0
 11 34  1  0  0  0  0
 11 35  1  0  0  0  0
 13 14  2  0  0  0  0
 13 15  1  0  0  0  0
 14 16  1  0  0  0  0
 14 17  1  0  0  0  0
 15 18  2  0  0  0  0
 15 37  1  0  0  0  0
 16 19  2  0  0  0  0
 16 38  1  0  0  0  0
 17 39  1  0  0  0  0
 17 40  1  0  0  0  0
 17 41  1  0  0  0  0
 18 19  1  0  0  0  0
 19 42  1  0  0  0  0
M  END
> <PUBCHEM_COMPOUND_CID>
53527538

> <PUBCHEM_COMPOUND_CANONICALIZED>
1

> <PUBCHEM_CACTVS_COMPLEXITY>
296

> <PUBCHEM_CACTVS_HBOND_ACCEPTOR>
1

> <PUBCHEM_CACTVS_HBOND_DONOR>
1

> <PUBCHEM_CACTVS_ROTATABLE_BOND>
4

> <PUBCHEM_CACTVS_SUBSKEYS>
AAADceBzIAAEAAAAAAAAAAAAAAAAAAAAAAAwAAAAAAAAAAABAAAAHgIQAAAADSrBGCQzwIPAAACIAiRCUACCAAAhBwAIiAAIZoiIICLBk5GEIAholgJIyCcQgAAOBAAAAAICAAAIAAAABAQAAAAAAAAAAA==

> <PUBCHEM_IUPAC_OPENEYE_NAME>
3-(5-chloro-2-methyl-phenyl)-1-(1,3-dimethylbutyl)-1-methyl-urea

> <PUBCHEM_IUPAC_CAS_NAME>
3-(5-chloro-2-methylphenyl)-1-methyl-1-(4-methylpentan-2-yl)urea

> <PUBCHEM_IUPAC_NAME>
3-(5-chloro-2-methylphenyl)-1-methyl-1-(4-methylpentan-2-yl)urea

> <PUBCHEM_IUPAC_SYSTEMATIC_NAME>
3-(5-chloranyl-2-methyl-phenyl)-1-methyl-1-(4-methylpentan-2-yl)urea

> <PUBCHEM_IUPAC_TRADITIONAL_NAME>
3-(5-chloro-2-methyl-phenyl)-1-(1,3-dimethylbutyl)-1-methyl-urea

> <PUBCHEM_IUPAC_INCHI>
InChI=1S/C15H23ClN2O/c1-10(2)8-12(4)18(5)15(19)17-14-9-13(16)7-6-11(14)3/h6-7,9-10,12H,8H2,1-5H3,(H,17,19)

> <PUBCHEM_IUPAC_INCHIKEY>
QWEZPKORXDJFNI-UHFFFAOYSA-N

> <PUBCHEM_XLOGP3>
4

> <PUBCHEM_EXACT_MASS>
282.149891

> <PUBCHEM_MOLECULAR_FORMULA>
C15H23ClN2O

> <PUBCHEM_MOLECULAR_WEIGHT>
282.80892

> <PUBCHEM_OPENEYE_CAN_SMILES>
CC1=C(C=C(C=C1)Cl)NC(=O)N(C)C(C)CC(C)C

> <PUBCHEM_OPENEYE_ISO_SMILES>
CC1=C(C=C(C=C1)Cl)NC(=O)N(C)C(C)CC(C)C

> <PUBCHEM_CACTVS_TPSA>
32.3

> <PUBCHEM_MONOISOTOPIC_WEIGHT>
282.149891

> <PUBCHEM_TOTAL_CHARGE>
0

> <PUBCHEM_HEAVY_ATOM_COUNT>
19

> <PUBCHEM_ATOM_DEF_STEREO_COUNT>
0

> <PUBCHEM_ATOM_UDEF_STEREO_COUNT>
1

> <PUBCHEM_BOND_DEF_STEREO_COUNT>
0

> <PUBCHEM_BOND_UDEF_STEREO_COUNT>
0

> <PUBCHEM_ISOTOPIC_ATOM_COUNT>
0

> <PUBCHEM_COMPONENT_COUNT>
1

> <PUBCHEM_CACTVS_TAUTO_COUNT>
2

> <PUBCHEM_COORDINATE_TYPE>
1
5
255

> <PUBCHEM_BONDANNOTATIONS>
13  14  8
13  15  8
14  16  8
15  18  8
16  19  8
18  19  8
5  8  3

$$$$
53532909
  -OEChem-11301218052D

 27 27  0     0  0  0  0  0  0999 V2000
    5.4641   -2.5000    0.0000 Br  0  0  0  0  0  0  0  0  0  0  0  0
    5.4641    0.5000    0.0000 O   0  0  0  0  0  0  0  0  0  0  0  0
    3.7320    0.5000    0.0000 N   0  0  0  0  0  0  0  0  0  0  0  0
    4.5981    2.0000    0.0000 N   0  0  0  0  0  0  0  0  0  0  0  0
    3.7320   -0.5000    0.0000 C   0  0  0  0  0  0  0  0  0  0  0  0
    2.8660   -1.0000    0.0000 C   0  0  0  0  0  0  0  0  0  0  0  0
    4.5981   -1.0000    0.0000 C   0  0  0  0  0  0  0  0  0  0  0  0
    2.8660   -2.0000    0.0000 C   0  0  0  0  0  0  0  0  0  0  0  0
    4.5981    1.0000    0.0000 C   0  0  0  0  0  0  0  0  0  0  0  0
    2.0000   -0.5000    0.0000 C   0  0  0  0  0  0  0  0  0  0  0  0
    4.5981   -2.0000    0.0000 C   0  0  0  0  0  0  0  0  0  0  0  0
    3.7320   -2.5000    0.0000 C   0  0  0  0  0  0  0  0  0  0  0  0
    5.4641    2.5000    0.0000 C   0  0  0  0  0  0  0  0  0  0  0  0
    3.7320    2.5000    0.0000 C   0  0  0  0  0  0  0  0  0  0  0  0
    3.1951    0.8100    0.0000 H   0  0  0  0  0  0  0  0  0  0  0  0
    5.1350   -0.6900    0.0000 H   0  0  0  0  0  0  0  0  0  0  0  0
    2.3291   -2.3100    0.0000 H   0  0  0  0  0  0  0  0  0  0  0  0
    2.3100    0.0369    0.0000 H   0  0  0  0  0  0  0  0  0  0  0  0
    1.4631   -0.1900    0.0000 H   0  0  0  0  0  0  0  0  0  0  0  0
    1.6900   -1.0369    0.0000 H   0  0  0  0  0  0  0  0  0  0  0  0
    3.7320   -3.1200    0.0000 H   0  0  0  0  0  0  0  0  0  0  0  0
    5.7741    1.9631    0.0000 H   0  0  0  0  0  0  0  0  0  0  0  0
    6.0010    2.8100    0.0000 H   0  0  0  0  0  0  0  0  0  0  0  0
    5.1541    3.0369    0.0000 H   0  0  0  0  0  0  0  0  0  0  0  0
    4.0420    3.0369    0.0000 H   0  0  0  0  0  0  0  0  0  0  0  0
    3.1951    2.8100    0.0000 H   0  0  0  0  0  0  0  0  0  0  0  0
    3.4220    1.9631    0.0000 H   0  0  0  0  0  0  0  0  0  0  0  0
  1 11  1  0  0  0  0
  2  9  2  0  0  0  0
  3  5  1  0  0  0  0
  3  9  1  0  0  0  0
  3 15  1  0  0  0  0
  4  9  1  0  0  0  0
  4 13  1  0  0  0  0
  4 14  1  0  0  0  0
  5  6  2  0  0  0  0
  5  7  1  0  0  0  0
  6  8  1  0  0  0  0
  6 10  1  0  0  0  0
  7 11  2  0  0  0  0
  7 16  1  0  0  0  0
  8 12  2  0  0  0  0
  8 17  1  0  0  0  0
 10 18  1  0  0  0  0
 10 19  1  0  0  0  0
 10 20  1  0  0  0  0
 11 12  1  0  0  0  0
 12 21  1  0  0  0  0
 13 22  1  0  0  0  0
 13 23  1  0  0  0  0
 13 24  1  0  0  0  0
 14 25  1  0  0  0  0
 14 26  1  0  0  0  0
 14 27  1  0  0  0  0
M  END
> <PUBCHEM_COMPOUND_CID>
53532909

> <PUBCHEM_COMPOUND_CANONICALIZED>
1

> <PUBCHEM_CACTVS_COMPLEXITY>
208

> <PUBCHEM_CACTVS_HBOND_ACCEPTOR>
1

> <PUBCHEM_CACTVS_HBOND_DONOR>
1

> <PUBCHEM_CACTVS_ROTATABLE_BOND>
1

> <PUBCHEM_CACTVS_SUBSKEYS>
AAADccBzIAAAEAAAAAAAAAAAAAAAAAAAAAAwAAAAAAAAAAABAAAAHgBQAAABrAiBGAQzwIPAAACIAiRCUACCAAAhAgQIiAAIZKiIICLAkZGEIAholgJIyjcQgAAOAgAAAAECAAAEAAAAAgQAAAAAAAAAAA==

> <PUBCHEM_IUPAC_OPENEYE_NAME>
3-(5-bromo-2-methyl-phenyl)-1,1-dimethyl-urea

> <PUBCHEM_IUPAC_CAS_NAME>
3-(5-bromo-2-methylphenyl)-1,1-dimethylurea

> <PUBCHEM_IUPAC_NAME>
3-(5-bromo-2-methylphenyl)-1,1-dimethylurea

> <PUBCHEM_IUPAC_SYSTEMATIC_NAME>
3-(5-bromanyl-2-methyl-phenyl)-1,1-dimethyl-urea

> <PUBCHEM_IUPAC_TRADITIONAL_NAME>
3-(5-bromo-2-methyl-phenyl)-1,1-dimethyl-urea

> <PUBCHEM_IUPAC_INCHI>
InChI=1S/C10H13BrN2O/c1-7-4-5-8(11)6-9(7)12-10(14)13(2)3/h4-6H,1-3H3,(H,12,14)

> <PUBCHEM_IUPAC_INCHIKEY>
MIBNTUNBOXBOKG-UHFFFAOYSA-N

> <PUBCHEM_XLOGP3>
1.9

> <PUBCHEM_EXACT_MASS>
256.021125

> <PUBCHEM_MOLECULAR_FORMULA>
C10H13BrN2O

> <PUBCHEM_MOLECULAR_WEIGHT>
257.12702

> <PUBCHEM_OPENEYE_CAN_SMILES>
CC1=C(C=C(C=C1)Br)NC(=O)N(C)C

> <PUBCHEM_OPENEYE_ISO_SMILES>
CC1=C(C=C(C=C1)Br)NC(=O)N(C)C

> <PUBCHEM_CACTVS_TPSA>
32.3

> <PUBCHEM_MONOISOTOPIC_WEIGHT>
256.021125

> <PUBCHEM_TOTAL_CHARGE>
0

> <PUBCHEM_HEAVY_ATOM_COUNT>
14

> <PUBCHEM_ATOM_DEF_STEREO_COUNT>
0

> <PUBCHEM_ATOM_UDEF_STEREO_COUNT>
0

> <PUBCHEM_BOND_DEF_STEREO_COUNT>
0

> <PUBCHEM_BOND_UDEF_STEREO_COUNT>
0

> <PUBCHEM_ISOTOPIC_ATOM_COUNT>
0

> <PUBCHEM_COMPONENT_COUNT>
1

> <PUBCHEM_CACTVS_TAUTO_COUNT>
2

> <PUBCHEM_COORDINATE_TYPE>
1
5
255

> <PUBCHEM_BONDANNOTATIONS>
11  12  8
5  6  8
5  7  8
6  8  8
7  11  8
8  12  8

$$$$
53535844
  -OEChem-11301218052D

 43 46  0     1  0  0  0  0  0999 V2000
    5.6103    1.3036    0.0000 O   0  0  0  0  0  0  0  0  0  0  0  0
    7.2566    0.7655    0.0000 N   0  0  0  0  0  0  0  0  0  0  0  0
    4.6783   -3.1575    0.0000 N   0  0  0  0  0  0  0  0  0  0  0  0
    8.3116    2.3838    0.0000 C   0  0  3  0  0  0  0  0  0  0  0  0
    7.5673    1.7160    0.0000 C   0  0  3  0  0  0  0  0  0  0  0  0
    7.3610    2.6945    0.0000 C   0  0  0  0  0  0  0  0  0  0  0  0
    9.2901    2.5901    0.0000 C   0  0  0  0  0  0  0  0  0  0  0  0
    6.2781    0.5593    0.0000 C   0  0  0  0  0  0  0  0  0  0  0  0
    9.6007    3.5406    0.0000 C   0  0  0  0  0  0  0  0  0  0  0  0
    9.9579    1.8458    0.0000 C   0  0  0  0  0  0  0  0  0  0  0  0
    5.9674   -0.3913    0.0000 C   0  0  0  0  0  0  0  0  0  0  0  0
    4.9889   -0.5975    0.0000 C   0  0  0  0  0  0  0  0  0  0  0  0
   10.5792    3.7468    0.0000 C   0  0  0  0  0  0  0  0  0  0  0  0
   10.9364    2.0520    0.0000 C   0  0  0  0  0  0  0  0  0  0  0  0
    4.6783   -1.5480    0.0000 C   0  0  0  0  0  0  0  0  0  0  0  0
   11.2471    3.0025    0.0000 C   0  0  0  0  0  0  0  0  0  0  0  0
    3.7320   -1.8527    0.0000 C   0  0  0  0  0  0  0  0  0  0  0  0
    5.2619   -2.3527    0.0000 C   0  0  0  0  0  0  0  0  0  0  0  0
    3.7320   -2.8527    0.0000 C   0  0  0  0  0  0  0  0  0  0  0  0
    2.8660   -1.3527    0.0000 C   0  0  0  0  0  0  0  0  0  0  0  0
    2.8660   -3.3527    0.0000 C   0  0  0  0  0  0  0  0  0  0  0  0
    2.0000   -1.8527    0.0000 C   0  0  0  0  0  0  0  0  0  0  0  0
    2.0000   -2.8527    0.0000 C   0  0  0  0  0  0  0  0  0  0  0  0
    8.3451    3.0029    0.0000 H   0  0  0  0  0  0  0  0  0  0  0  0
    6.9482    1.7495    0.0000 H   0  0  0  0  0  0  0  0  0  0  0  0
    7.4484    3.3083    0.0000 H   0  0  0  0  0  0  0  0  0  0  0  0
    6.7414    2.6739    0.0000 H   0  0  0  0  0  0  0  0  0  0  0  0
    7.6707    0.3040    0.0000 H   0  0  0  0  0  0  0  0  0  0  0  0
    9.1867    4.0020    0.0000 H   0  0  0  0  0  0  0  0  0  0  0  0
    9.7653    1.2564    0.0000 H   0  0  0  0  0  0  0  0  0  0  0  0
    5.9880   -1.0109    0.0000 H   0  0  0  0  0  0  0  0  0  0  0  0
    6.5812   -0.4786    0.0000 H   0  0  0  0  0  0  0  0  0  0  0  0
    4.9684    0.0222    0.0000 H   0  0  0  0  0  0  0  0  0  0  0  0
    4.3751   -0.5101    0.0000 H   0  0  0  0  0  0  0  0  0  0  0  0
   10.7719    4.3361    0.0000 H   0  0  0  0  0  0  0  0  0  0  0  0
   11.3505    1.5905    0.0000 H   0  0  0  0  0  0  0  0  0  0  0  0
   11.8538    3.1304    0.0000 H   0  0  0  0  0  0  0  0  0  0  0  0
    5.8819   -2.3527    0.0000 H   0  0  0  0  0  0  0  0  0  0  0  0
    4.8709   -3.7468    0.0000 H   0  0  0  0  0  0  0  0  0  0  0  0
    2.8660   -0.7327    0.0000 H   0  0  0  0  0  0  0  0  0  0  0  0
    2.8660   -3.9727    0.0000 H   0  0  0  0  0  0  0  0  0  0  0  0
    1.4631   -1.5427    0.0000 H   0  0  0  0  0  0  0  0  0  0  0  0
    1.4631   -3.1627    0.0000 H   0  0  0  0  0  0  0  0  0  0  0  0
  1  8  2  0  0  0  0
  2  5  1  0  0  0  0
  2  8  1  0  0  0  0
  2 28  1  0  0  0  0
  3 18  1  0  0  0  0
  3 19  1  0  0  0  0
  3 39  1  0  0  0  0
  4  5  1  0  0  0  0
  4  6  1  0  0  0  0
  4  7  1  0  0  0  0
  4 24  1  0  0  0  0
  5  6  1  0  0  0  0
  5 25  1  0  0  0  0
  6 26  1  0  0  0  0
  6 27  1  0  0  0  0
  7  9  2  0  0  0  0
  7 10  1  0  0  0  0
  8 11  1  0  0  0  0
  9 13  1  0  0  0  0
  9 29  1  0  0  0  0
 10 14  2  0  0  0  0
 10 30  1  0  0  0  0
 11 12  1  0  0  0  0
 11 31  1  0  0  0  0
 11 32  1  0  0  0  0
 12 15  1  0  0  0  0
 12 33  1  0  0  0  0
 12 34  1  0  0  0  0
 13 16  2  0  0  0  0
 13 35  1  0  0  0  0
 14 16  1  0  0  0  0
 14 36  1  0  0  0  0
 15 17  1  0  0  0  0
 15 18  2  0  0  0  0
 16 37  1  0  0  0  0
 17 19  1  0  0  0  0
 17 20  2  0  0  0  0
 18 38  1  0  0  0  0
 19 21  2  0  0  0  0
 20 22  1  0  0  0  0
 20 40  1  0  0  0  0
 21 23  1  0  0  0  0
 21 41  1  0  0  0  0
 22 23  2  0  0  0  0
 22 42  1  0  0  0  0
 23 43  1  0  0  0  0
M  END
> <PUBCHEM_COMPOUND_CID>
53535844

> <PUBCHEM_COMPOUND_CANONICALIZED>
1

> <PUBCHEM_CACTVS_COMPLEXITY>
418

> <PUBCHEM_CACTVS_HBOND_ACCEPTOR>
1

> <PUBCHEM_CACTVS_HBOND_DONOR>
2

> <PUBCHEM_CACTVS_ROTATABLE_BOND>
5

> <PUBCHEM_CACTVS_SUBSKEYS>
AAADceB7IAAAAAAAAAAAAAAAGAAAAWAAAAAwYAAAAAAAAFgB9AAAHgAQAAAADSjBngQ8wPLJkACoAzV3VACCgCAxAiAI2aE4ZJgIIPLAkZGEIAhglgDIyAcYicCOgAAAAAACAAAAAAAAAAQAAAAAAAAAAA==

> <PUBCHEM_IUPAC_OPENEYE_NAME>
3-(1H-indol-3-yl)-N-(2-phenylcyclopropyl)propanamide

> <PUBCHEM_IUPAC_CAS_NAME>
3-(1H-indol-3-yl)-N-(2-phenylcyclopropyl)propanamide

> <PUBCHEM_IUPAC_NAME>
3-(1H-indol-3-yl)-N-(2-phenylcyclopropyl)propanamide

> <PUBCHEM_IUPAC_SYSTEMATIC_NAME>
3-(1H-indol-3-yl)-N-(2-phenylcyclopropyl)propanamide

> <PUBCHEM_IUPAC_TRADITIONAL_NAME>
3-(1H-indol-3-yl)-N-(2-phenylcyclopropyl)propionamide

> <PUBCHEM_IUPAC_INCHI>
InChI=1S/C20H20N2O/c23-20(22-19-12-17(19)14-6-2-1-3-7-14)11-10-15-13-21-18-9-5-4-8-16(15)18/h1-9,13,17,19,21H,10-12H2,(H,22,23)

> <PUBCHEM_IUPAC_INCHIKEY>
LUBWXTIURTXCJI-UHFFFAOYSA-N

> <PUBCHEM_XLOGP3>
3.4

> <PUBCHEM_EXACT_MASS>
304.157563

> <PUBCHEM_MOLECULAR_FORMULA>
C20H20N2O

> <PUBCHEM_MOLECULAR_WEIGHT>
304.3856

> <PUBCHEM_OPENEYE_CAN_SMILES>
C1C(C1NC(=O)CCC2=CNC3=CC=CC=C32)C4=CC=CC=C4

> <PUBCHEM_OPENEYE_ISO_SMILES>
C1C(C1NC(=O)CCC2=CNC3=CC=CC=C32)C4=CC=CC=C4

> <PUBCHEM_CACTVS_TPSA>
44.9

> <PUBCHEM_MONOISOTOPIC_WEIGHT>
304.157563

> <PUBCHEM_TOTAL_CHARGE>
0

> <PUBCHEM_HEAVY_ATOM_COUNT>
23

> <PUBCHEM_ATOM_DEF_STEREO_COUNT>
0

> <PUBCHEM_ATOM_UDEF_STEREO_COUNT>
2

> <PUBCHEM_BOND_DEF_STEREO_COUNT>
0

> <PUBCHEM_BOND_UDEF_STEREO_COUNT>
0

> <PUBCHEM_ISOTOPIC_ATOM_COUNT>
0

> <PUBCHEM_COMPONENT_COUNT>
1

> <PUBCHEM_CACTVS_TAUTO_COUNT>
2

> <PUBCHEM_COORDINATE_TYPE>
1
5
255

> <PUBCHEM_BONDANNOTATIONS>
10  14  8
13  16  8
14  16  8
15  17  8
15  18  8
17  19  8
17  20  8
19  21  8
5  2  3
20  22  8
21  23  8
22  23  8
3  18  8
3  19  8
4  7  3
7  10  8
7  9  8
9  13  8

$$$$
53547072
  -OEChem-11301218062D

 34 35  0     1  0  0  0  0  0999 V2000
    2.8660    0.7927    0.0000 O   0  0  0  0  0  0  0  0  0  0  0  0
    3.7320   -0.7073    0.0000 N   0  0  0  0  0  0  0  0  0  0  0  0
    4.5981   -0.2073    0.0000 C   0  0  3  0  0  0  0  0  0  0  0  0
    5.4641   -0.7073    0.0000 C   0  0  0  0  0  0  0  0  0  0  0  0
    6.3301   -0.2073    0.0000 C   0  0  0  0  0  0  0  0  0  0  0  0
    4.5981    0.7927    0.0000 C   0  0  0  0  0  0  0  0  0  0  0  0
    7.1962   -0.7073    0.0000 C   0  0  0  0  0  0  0  0  0  0  0  0
    8.0622   -0.2073    0.0000 C   0  0  0  0  0  0  0  0  0  0  0  0
    6.3301    0.7927    0.0000 C   0  0  0  0  0  0  0  0  0  0  0  0
    8.0622    0.7927    0.0000 C   0  0  0  0  0  0  0  0  0  0  0  0
    7.1962    1.2927    0.0000 C   0  0  0  0  0  0  0  0  0  0  0  0
    8.9561   -0.7420    0.0000 C   0  0  0  0  0  0  0  0  0  0  0  0
    8.9561    1.3273    0.0000 C   0  0  0  0  0  0  0  0  0  0  0  0
    2.8660   -0.2073    0.0000 C   0  0  0  0  0  0  0  0  0  0  0  0
    9.8622   -0.2281    0.0000 C   0  0  0  0  0  0  0  0  0  0  0  0
    9.8622    0.8135    0.0000 C   0  0  0  0  0  0  0  0  0  0  0  0
    2.0000   -0.7073    0.0000 C   0  0  0  0  0  0  0  0  0  0  0  0
    4.5981   -0.8273    0.0000 H   0  0  0  0  0  0  0  0  0  0  0  0
    5.0656   -1.1823    0.0000 H   0  0  0  0  0  0  0  0  0  0  0  0
    5.8626   -1.1823    0.0000 H   0  0  0  0  0  0  0  0  0  0  0  0
    5.2181    0.7927    0.0000 H   0  0  0  0  0  0  0  0  0  0  0  0
    4.5981    1.4127    0.0000 H   0  0  0  0  0  0  0  0  0  0  0  0
    3.9781    0.7927    0.0000 H   0  0  0  0  0  0  0  0  0  0  0  0
    7.1962   -1.3273    0.0000 H   0  0  0  0  0  0  0  0  0  0  0  0
    5.7932    1.1027    0.0000 H   0  0  0  0  0  0  0  0  0  0  0  0
    3.7320   -1.3273    0.0000 H   0  0  0  0  0  0  0  0  0  0  0  0
    7.1962    1.9127    0.0000 H   0  0  0  0  0  0  0  0  0  0  0  0
    8.9490   -1.3620    0.0000 H   0  0  0  0  0  0  0  0  0  0  0  0
    8.9490    1.9473    0.0000 H   0  0  0  0  0  0  0  0  0  0  0  0
   10.3979   -0.5402    0.0000 H   0  0  0  0  0  0  0  0  0  0  0  0
   10.3979    1.1256    0.0000 H   0  0  0  0  0  0  0  0  0  0  0  0
    1.6900   -0.1704    0.0000 H   0  0  0  0  0  0  0  0  0  0  0  0
    1.4631   -1.0173    0.0000 H   0  0  0  0  0  0  0  0  0  0  0  0
    2.3100   -1.2443    0.0000 H   0  0  0  0  0  0  0  0  0  0  0  0
  1 14  2  0  0  0  0
  2  3  1  0  0  0  0
  2 14  1  0  0  0  0
  2 26  1  0  0  0  0
  3  4  1  0  0  0  0
  3  6  1  0  0  0  0
  3 18  1  0  0  0  0
  4  5  1  0  0  0  0
  4 19  1  0  0  0  0
  4 20  1  0  0  0  0
  5  7  2  0  0  0  0
  5  9  1  0  0  0  0
  6 21  1  0  0  0  0
  6 22  1  0  0  0  0
  6 23  1  0  0  0  0
  7  8  1  0  0  0  0
  7 24  1  0  0  0  0
  8 10  1  0  0  0  0
  8 12  2  0  0  0  0
  9 11  2  0  0  0  0
  9 25  1  0  0  0  0
 10 11  1  0  0  0  0
 10 13  2  0  0  0  0
 11 27  1  0  0  0  0
 12 15  1  0  0  0  0
 12 28  1  0  0  0  0
 13 16  1  0  0  0  0
 13 29  1  0  0  0  0
 14 17  1  0  0  0  0
 15 16  2  0  0  0  0
 15 30  1  0  0  0  0
 16 31  1  0  0  0  0
 17 32  1  0  0  0  0
 17 33  1  0  0  0  0
 17 34  1  0  0  0  0
M  END
> <PUBCHEM_COMPOUND_CID>
53547072

> <PUBCHEM_COMPOUND_CANONICALIZED>
1

> <PUBCHEM_CACTVS_COMPLEXITY>
264

> <PUBCHEM_CACTVS_HBOND_ACCEPTOR>
1

> <PUBCHEM_CACTVS_HBOND_DONOR>
1

> <PUBCHEM_CACTVS_ROTATABLE_BOND>
3

> <PUBCHEM_CACTVS_SUBSKEYS>
AAADceByIAAAAAAAAAAAAAAAAAAAAAAAAAAwYAAAAAAAAADBUAAAHgAQAAAADCjBmAQyAMLAAACIAiFSEAACAAAgAAAIiIAIAIgIICKAkRGEIAAglgCIiAcQgMAOwAACAAAQAACAAAQAACAAAAAAAAAAAA==

> <PUBCHEM_IUPAC_OPENEYE_NAME>
N-[1-methyl-2-(2-naphthyl)ethyl]acetamide

> <PUBCHEM_IUPAC_CAS_NAME>
N-[1-(2-naphthalenyl)propan-2-yl]acetamide

> <PUBCHEM_IUPAC_NAME>
N-(1-naphthalen-2-ylpropan-2-yl)acetamide

> <PUBCHEM_IUPAC_SYSTEMATIC_NAME>
N-(1-naphthalen-2-ylpropan-2-yl)ethanamide

> <PUBCHEM_IUPAC_TRADITIONAL_NAME>
N-[1-methyl-2-(2-naphthyl)ethyl]acetamide

> <PUBCHEM_IUPAC_INCHI>
InChI=1S/C15H17NO/c1-11(16-12(2)17)9-13-7-8-14-5-3-4-6-15(14)10-13/h3-8,10-11H,9H2,1-2H3,(H,16,17)

> <PUBCHEM_IUPAC_INCHIKEY>
KPODCKYIWDFSMT-UHFFFAOYSA-N

> <PUBCHEM_XLOGP3>
3.6

> <PUBCHEM_EXACT_MASS>
227.131014

> <PUBCHEM_MOLECULAR_FORMULA>
C15H17NO

> <PUBCHEM_MOLECULAR_WEIGHT>
227.30158

> <PUBCHEM_OPENEYE_CAN_SMILES>
CC(CC1=CC2=CC=CC=C2C=C1)NC(=O)C

> <PUBCHEM_OPENEYE_ISO_SMILES>
CC(CC1=CC2=CC=CC=C2C=C1)NC(=O)C

> <PUBCHEM_CACTVS_TPSA>
29.1

> <PUBCHEM_MONOISOTOPIC_WEIGHT>
227.131014

> <PUBCHEM_TOTAL_CHARGE>
0

> <PUBCHEM_HEAVY_ATOM_COUNT>
17

> <PUBCHEM_ATOM_DEF_STEREO_COUNT>
0

> <PUBCHEM_ATOM_UDEF_STEREO_COUNT>
1

> <PUBCHEM_BOND_DEF_STEREO_COUNT>
0

> <PUBCHEM_BOND_UDEF_STEREO_COUNT>
0

> <PUBCHEM_ISOTOPIC_ATOM_COUNT>
0

> <PUBCHEM_COMPONENT_COUNT>
1

> <PUBCHEM_CACTVS_TAUTO_COUNT>
2

> <PUBCHEM_COORDINATE_TYPE>
1
5
255

> <PUBCHEM_BONDANNOTATIONS>
10  11  8
10  13  8
12  15  8
13  16  8
15  16  8
3  6  3
5  7  8
5  9  8
7  8  8
8  10  8
8  12  8
9  11  8

$$$$
53548020
  -OEChem-11301218062D

 30 32  0     0  0  0  0  0  0999 V2000
    3.7320   -1.5463    0.0000 O   0  0  0  0  0  0  0  0  0  0  0  0
    3.7320    1.4537    0.0000 N   0  0  0  0  0  0  0  0  0  0  0  0
    2.8660   -0.0463    0.0000 N   0  0  0  0  0  0  0  0  0  0  0  0
    4.5981   -0.0463    0.0000 C   0  0  0  0  0  0  0  0  0  0  0  0
    4.5981    0.9537    0.0000 C   0  0  0  0  0  0  0  0  0  0  0  0
    6.3981   -0.0671    0.0000 C   0  0  0  0  0  0  0  0  0  0  0  0
    5.4920   -0.5809    0.0000 C   0  0  0  0  0  0  0  0  0  0  0  0
    5.4920    1.4884    0.0000 C   0  0  0  0  0  0  0  0  0  0  0  0
    7.2622   -0.5704    0.0000 C   0  0  0  0  0  0  0  0  0  0  0  0
    6.3981    0.9746    0.0000 C   0  0  0  0  0  0  0  0  0  0  0  0
    3.7320   -0.5463    0.0000 C   0  0  0  0  0  0  0  0  0  0  0  0
    2.8660    0.9537    0.0000 C   0  0  0  0  0  0  0  0  0  0  0  0
    7.2583   -1.5704    0.0000 C   0  0  0  0  0  0  0  0  0  0  0  0
    8.1301   -0.0738    0.0000 C   0  0  0  0  0  0  0  0  0  0  0  0
    2.0000    1.4537    0.0000 C   0  0  0  0  0  0  0  0  0  0  0  0
    8.1224   -2.0737    0.0000 C   0  0  0  0  0  0  0  0  0  0  0  0
    8.9942   -0.5771    0.0000 C   0  0  0  0  0  0  0  0  0  0  0  0
    8.9904   -1.5771    0.0000 C   0  0  0  0  0  0  0  0  0  0  0  0
    5.4848   -1.2009    0.0000 H   0  0  0  0  0  0  0  0  0  0  0  0
    5.4848    2.1084    0.0000 H   0  0  0  0  0  0  0  0  0  0  0  0
    6.9338    1.2866    0.0000 H   0  0  0  0  0  0  0  0  0  0  0  0
    3.7320    2.0737    0.0000 H   0  0  0  0  0  0  0  0  0  0  0  0
    6.7202   -1.8783    0.0000 H   0  0  0  0  0  0  0  0  0  0  0  0
    8.1325    0.5462    0.0000 H   0  0  0  0  0  0  0  0  0  0  0  0
    2.3100    1.9907    0.0000 H   0  0  0  0  0  0  0  0  0  0  0  0
    1.4631    1.7637    0.0000 H   0  0  0  0  0  0  0  0  0  0  0  0
    1.6900    0.9168    0.0000 H   0  0  0  0  0  0  0  0  0  0  0  0
    8.1200   -2.6937    0.0000 H   0  0  0  0  0  0  0  0  0  0  0  0
    9.5323   -0.2692    0.0000 H   0  0  0  0  0  0  0  0  0  0  0  0
    9.5261   -1.8892    0.0000 H   0  0  0  0  0  0  0  0  0  0  0  0
  1 11  2  0  0  0  0
  2  5  1  0  0  0  0
  2 12  1  0  0  0  0
  2 22  1  0  0  0  0
  3 11  1  0  0  0  0
  3 12  2  0  0  0  0
  4  5  2  0  0  0  0
  4  7  1  0  0  0  0
  4 11  1  0  0  0  0
  5  8  1  0  0  0  0
  6  7  2  0  0  0  0
  6  9  1  0  0  0  0
  6 10  1  0  0  0  0
  7 19  1  0  0  0  0
  8 10  2  0  0  0  0
  8 20  1  0  0  0  0
  9 13  2  0  0  0  0
  9 14  1  0  0  0  0
 10 21  1  0  0  0  0
 12 15  1  0  0  0  0
 13 16  1  0  0  0  0
 13 23  1  0  0  0  0
 14 17  2  0  0  0  0
 14 24  1  0  0  0  0
 15 25  1  0  0  0  0
 15 26  1  0  0  0  0
 15 27  1  0  0  0  0
 16 18  2  0  0  0  0
 16 28  1  0  0  0  0
 17 18  1  0  0  0  0
 17 29  1  0  0  0  0
 18 30  1  0  0  0  0
M  END
> <PUBCHEM_COMPOUND_CID>
53548020

> <PUBCHEM_COMPOUND_CANONICALIZED>
1

> <PUBCHEM_CACTVS_COMPLEXITY>
358

> <PUBCHEM_CACTVS_HBOND_ACCEPTOR>
1

> <PUBCHEM_CACTVS_HBOND_DONOR>
1

> <PUBCHEM_CACTVS_ROTATABLE_BOND>
1

> <PUBCHEM_CACTVS_SUBSKEYS>
AAADccBzIAAAAAAAAAAAAAAAAAAAAAAAAAAwYIAAAAAAAACBQAAAHgAQAAAADAiBmAAzwILAAACoAidydACCAAElAgAJiAEQZMgIIDrA3ZGEIYhgkADIyccYiMCOiAACAAACAAAQAAQAAAQAAAAAAAAAAA==

> <PUBCHEM_IUPAC_OPENEYE_NAME>
2-methyl-6-phenyl-1H-quinazolin-4-one

> <PUBCHEM_IUPAC_CAS_NAME>
2-methyl-6-phenyl-1H-quinazolin-4-one

> <PUBCHEM_IUPAC_NAME>
2-methyl-6-phenyl-1H-quinazolin-4-one

> <PUBCHEM_IUPAC_SYSTEMATIC_NAME>
2-methyl-6-phenyl-1H-quinazolin-4-one

> <PUBCHEM_IUPAC_TRADITIONAL_NAME>
2-methyl-6-phenyl-1H-quinazolin-4-one

> <PUBCHEM_IUPAC_INCHI>
InChI=1S/C15H12N2O/c1-10-16-14-8-7-12(9-13(14)15(18)17-10)11-5-3-2-4-6-11/h2-9H,1H3,(H,16,17,18)

> <PUBCHEM_IUPAC_INCHIKEY>
CSYCWUGZWXHXON-UHFFFAOYSA-N

> <PUBCHEM_XLOGP3>
2.8

> <PUBCHEM_EXACT_MASS>
236.094963

> <PUBCHEM_MOLECULAR_FORMULA>
C15H12N2O

> <PUBCHEM_MOLECULAR_WEIGHT>
236.26858

> <PUBCHEM_OPENEYE_CAN_SMILES>
CC1=NC(=O)C2=C(N1)C=CC(=C2)C3=CC=CC=C3

> <PUBCHEM_OPENEYE_ISO_SMILES>
CC1=NC(=O)C2=C(N1)C=CC(=C2)C3=CC=CC=C3

> <PUBCHEM_CACTVS_TPSA>
41.5

> <PUBCHEM_MONOISOTOPIC_WEIGHT>
236.094963

> <PUBCHEM_TOTAL_CHARGE>
0

> <PUBCHEM_HEAVY_ATOM_COUNT>
18

> <PUBCHEM_ATOM_DEF_STEREO_COUNT>
0

> <PUBCHEM_ATOM_UDEF_STEREO_COUNT>
0

> <PUBCHEM_BOND_DEF_STEREO_COUNT>
0

> <PUBCHEM_BOND_UDEF_STEREO_COUNT>
0

> <PUBCHEM_ISOTOPIC_ATOM_COUNT>
0

> <PUBCHEM_COMPONENT_COUNT>
1

> <PUBCHEM_CACTVS_TAUTO_COUNT>
10

> <PUBCHEM_COORDINATE_TYPE>
1
5
255

> <PUBCHEM_BONDANNOTATIONS>
13  16  8
14  17  8
16  18  8
17  18  8
2  12  8
2  5  8
3  11  8
3  12  8
4  11  8
4  5  8
4  7  8
5  8  8
6  10  8
6  7  8
8  10  8
9  13  8
9  14  8

$$$$
