6837267
  -OEChem-11301217012D

 24 25  0     0  0  0  0  0  0999 V2000
    6.2781    2.0891    0.0000 O   0  0  0  0  0  0  0  0  0  0  0  0
    4.6783   -1.6276    0.0000 N   0  0  0  0  0  0  0  0  0  0  0  0
    5.9674    1.1386    0.0000 N   0  3  0  0  0  0  0  0  0  0  0  0
    3.7320   -0.3229    0.0000 C   0  0  0  0  0  0  0  0  0  0  0  0
    3.7320   -1.3229    0.0000 C   0  0  0  0  0  0  0  0  0  0  0  0
    4.6783   -0.0182    0.0000 C   0  0  0  0  0  0  0  0  0  0  0  0
    5.2619   -0.8229    0.0000 C   0  0  0  0  0  0  0  0  0  0  0  0
    2.8660    0.1771    0.0000 C   0  0  0  0  0  0  0  0  0  0  0  0
    2.8660   -1.8229    0.0000 C   0  0  0  0  0  0  0  0  0  0  0  0
    4.9889    0.9324    0.0000 C   0  0  0  0  0  0  0  0  0  0  0  0
    2.0000   -0.3229    0.0000 C   0  0  0  0  0  0  0  0  0  0  0  0
    2.0000   -1.3229    0.0000 C   0  0  0  0  0  0  0  0  0  0  0  0
    6.6353    0.3943    0.0000 C   0  0  0  0  0  0  0  0  0  0  0  0
    4.8709   -2.2170    0.0000 H   0  0  0  0  0  0  0  0  0  0  0  0
    5.8819   -0.8229    0.0000 H   0  0  0  0  0  0  0  0  0  0  0  0
    2.8660    0.7971    0.0000 H   0  0  0  0  0  0  0  0  0  0  0  0
    2.8660   -2.4429    0.0000 H   0  0  0  0  0  0  0  0  0  0  0  0
    4.5749    1.3938    0.0000 H   0  0  0  0  0  0  0  0  0  0  0  0
    1.4631   -0.0129    0.0000 H   0  0  0  0  0  0  0  0  0  0  0  0
    1.4631   -1.6329    0.0000 H   0  0  0  0  0  0  0  0  0  0  0  0
    6.1738   -0.0198    0.0000 H   0  0  0  0  0  0  0  0  0  0  0  0
    7.0494   -0.0672    0.0000 H   0  0  0  0  0  0  0  0  0  0  0  0
    7.0968    0.8083    0.0000 H   0  0  0  0  0  0  0  0  0  0  0  0
    6.8848    2.2170    0.0000 H   0  0  0  0  0  0  0  0  0  0  0  0
  1  3  1  0  0  0  0
  1 24  1  0  0  0  0
  2  5  1  0  0  0  0
  2  7  1  0  0  0  0
  2 14  1  0  0  0  0
  3 10  2  3  0  0  0
  3 13  1  0  0  0  0
  4  5  1  0  0  0  0
  4  6  1  0  0  0  0
  4  8  2  0  0  0  0
  5  9  2  0  0  0  0
  6  7  2  0  0  0  0
  6 10  1  0  0  0  0
  7 15  1  0  0  0  0
  8 11  1  0  0  0  0
  8 16  1  0  0  0  0
  9 12  1  0  0  0  0
  9 17  1  0  0  0  0
 10 18  1  0  0  0  0
 11 12  2  0  0  0  0
 11 19  1  0  0  0  0
 12 20  1  0  0  0  0
 13 21  1  0  0  0  0
 13 22  1  0  0  0  0
 13 23  1  0  0  0  0
M  CHG  1   3   1
M  END
> <PUBCHEM_COMPOUND_CID>
6837267

> <PUBCHEM_COMPOUND_CANONICALIZED>
1

> <PUBCHEM_CACTVS_COMPLEXITY>
215

> <PUBCHEM_CACTVS_HBOND_ACCEPTOR>
1

> <PUBCHEM_CACTVS_HBOND_DONOR>
2

> <PUBCHEM_CACTVS_ROTATABLE_BOND>
1

> <PUBCHEM_CACTVS_SUBSKEYS>
AAADccBzIAAAAAAAAAAAAAAAAAAAAWAAAAAwAAAAAAAAAFgB8AAAHAAUCAAADAjBHgQ+wPLZkACgAzRnRACCgCAxAiAI2aA4ZJgIIOLAkZGEIAhgkADIyAcQgMAOgAAAAAACAAAAAAAAAAQAAAAAAAAAAA==

> <PUBCHEM_IUPAC_OPENEYE_NAME>
hydroxy-(1H-indol-3-ylmethylene)-methyl-ammonium

> <PUBCHEM_IUPAC_CAS_NAME>
hydroxy-(1H-indol-3-ylmethylidene)-methylammonium

> <PUBCHEM_IUPAC_NAME>
hydroxy-(1H-indol-3-ylmethylidene)-methylazanium

> <PUBCHEM_IUPAC_SYSTEMATIC_NAME>
1H-indol-3-ylmethylidene-methyl-oxidanyl-azanium

> <PUBCHEM_IUPAC_TRADITIONAL_NAME>
hydroxy-(1H-indol-3-ylmethylene)-methyl-ammonium

> <PUBCHEM_IUPAC_INCHI>
InChI=1S/C10H10N2O/c1-12(13)7-8-6-11-10-5-3-2-4-9(8)10/h2-7,13H,1H3/p+1

> <PUBCHEM_IUPAC_INCHIKEY>
OUGATPZCFTZHDN-UHFFFAOYSA-O

> <PUBCHEM_XLOGP3>
1.9

> <PUBCHEM_EXACT_MASS>
175.087138

> <PUBCHEM_MOLECULAR_FORMULA>
C10H11N2O+

> <PUBCHEM_MOLECULAR_WEIGHT>
175.20714

> <PUBCHEM_OPENEYE_CAN_SMILES>
C[N+](=CC1=CNC2=CC=CC=C21)O

> <PUBCHEM_OPENEYE_ISO_SMILES>
C[N+](=CC1=CNC2=CC=CC=C21)O

> <PUBCHEM_CACTVS_TPSA>
39

> <PUBCHEM_MONOISOTOPIC_WEIGHT>
175.087138

> <PUBCHEM_TOTAL_CHARGE>
1

> <PUBCHEM_HEAVY_ATOM_COUNT>
13

> <PUBCHEM_ATOM_DEF_STEREO_COUNT>
0

> <PUBCHEM_ATOM_UDEF_STEREO_COUNT>
0

> <PUBCHEM_BOND_DEF_STEREO_COUNT>
0

> <PUBCHEM_BOND_UDEF_STEREO_COUNT>
1

> <PUBCHEM_ISOTOPIC_ATOM_COUNT>
0

> <PUBCHEM_COMPONENT_COUNT>
1

> <PUBCHEM_CACTVS_TAUTO_COUNT>
1

> <PUBCHEM_COORDINATE_TYPE>
1
5
255

> <PUBCHEM_BONDANNOTATIONS>
11  12  8
2  5  8
2  7  8
3  10  1
4  5  8
4  6  8
4  8  8
5  9  8
6  7  8
8  11  8
9  12  8

$$$$
6839426
  -OEChem-11301217012D

 50 53  0     1  0  0  0  0  0999 V2000
    4.4026    1.3021    0.0000 O   0  0  0  0  0  0  0  0  0  0  0  0
    6.7485    0.2102    0.0000 O   0  0  0  0  0  0  0  0  0  0  0  0
    6.7523    2.3858    0.0000 O   0  0  0  0  0  0  0  0  0  0  0  0
    3.7066    3.2713    0.0000 O   0  0  0  0  0  0  0  0  0  0  0  0
    4.6783   -0.4585    0.0000 N   0  0  0  0  0  0  0  0  0  0  0  0
    4.6783   -2.0679    0.0000 N   0  0  0  0  0  0  0  0  0  0  0  0
    6.2619   -1.2632    0.0000 N   0  0  0  0  0  0  0  0  0  0  0  0
    2.8660   -0.2632    0.0000 N   0  0  0  0  0  0  0  0  0  0  0  0
    2.0000   -1.7632    0.0000 N   0  0  0  0  0  0  0  0  0  0  0  0
    6.7619   -2.1292    0.0000 N   0  0  0  0  0  0  0  0  0  0  0  0
    2.8660   -3.2632    0.0000 N   0  0  0  0  0  0  0  0  0  0  0  0
    5.9405    0.7994    0.0000 C   0  0  3  0  0  0  0  0  0  0  0  0
    4.9889    0.4921    0.0000 C   0  0  3  0  0  0  0  0  0  0  0  0
    5.9422    1.7994    0.0000 C   0  0  3  0  0  0  0  0  0  0  0  0
    4.9917    2.1101    0.0000 C   0  0  3  0  0  0  0  0  0  0  0  0
    4.6844    3.0617    0.0000 C   0  0  0  0  0  0  0  0  0  0  0  0
    3.7320   -0.7632    0.0000 C   0  0  0  0  0  0  0  0  0  0  0  0
    5.2619   -1.2632    0.0000 C   0  0  0  0  0  0  0  0  0  0  0  0
    3.7320   -1.7632    0.0000 C   0  0  0  0  0  0  0  0  0  0  0  0
    2.8660   -2.2632    0.0000 C   0  0  0  0  0  0  0  0  0  0  0  0
    2.0000   -0.7632    0.0000 C   0  0  0  0  0  0  0  0  0  0  0  0
    7.7619   -2.1292    0.0000 C   0  0  0  0  0  0  0  0  0  0  0  0
    8.2619   -2.9952    0.0000 C   0  0  0  0  0  0  0  0  0  0  0  0
    9.2619   -2.9952    0.0000 C   0  0  0  0  0  0  0  0  0  0  0  0
    9.7619   -3.8613    0.0000 C   0  0  0  0  0  0  0  0  0  0  0  0
    9.7619   -2.1292    0.0000 C   0  0  0  0  0  0  0  0  0  0  0  0
   10.7619   -3.8613    0.0000 C   0  0  0  0  0  0  0  0  0  0  0  0
   10.7619   -2.1292    0.0000 C   0  0  0  0  0  0  0  0  0  0  0  0
   11.2619   -2.9952    0.0000 C   0  0  0  0  0  0  0  0  0  0  0  0
    6.6985    1.1840    0.0000 H   0  0  0  0  0  0  0  0  0  0  0  0
    5.5889   -0.1100    0.0000 H   0  0  0  0  0  0  0  0  0  0  0  0
    6.6989    1.4122    0.0000 H   0  0  0  0  0  0  0  0  0  0  0  0
    4.1524    2.2445    0.0000 H   0  0  0  0  0  0  0  0  0  0  0  0
    5.2985    3.1469    0.0000 H   0  0  0  0  0  0  0  0  0  0  0  0
    4.7071    3.6813    0.0000 H   0  0  0  0  0  0  0  0  0  0  0  0
    7.3154    0.4614    0.0000 H   0  0  0  0  0  0  0  0  0  0  0  0
    6.6886    3.0025    0.0000 H   0  0  0  0  0  0  0  0  0  0  0  0
    3.5160    3.8613    0.0000 H   0  0  0  0  0  0  0  0  0  0  0  0
    6.5719   -0.7263    0.0000 H   0  0  0  0  0  0  0  0  0  0  0  0
    1.4631   -0.4532    0.0000 H   0  0  0  0  0  0  0  0  0  0  0  0
    2.3291   -3.5732    0.0000 H   0  0  0  0  0  0  0  0  0  0  0  0
    3.4030   -3.5732    0.0000 H   0  0  0  0  0  0  0  0  0  0  0  0
    8.0719   -1.5923    0.0000 H   0  0  0  0  0  0  0  0  0  0  0  0
    7.6793   -3.2073    0.0000 H   0  0  0  0  0  0  0  0  0  0  0  0
    8.3695   -3.6058    0.0000 H   0  0  0  0  0  0  0  0  0  0  0  0
    9.4519   -4.3982    0.0000 H   0  0  0  0  0  0  0  0  0  0  0  0
    9.4519   -1.5923    0.0000 H   0  0  0  0  0  0  0  0  0  0  0  0
   11.0719   -4.3982    0.0000 H   0  0  0  0  0  0  0  0  0  0  0  0
   11.0719   -1.5923    0.0000 H   0  0  0  0  0  0  0  0  0  0  0  0
   11.8819   -2.9952    0.0000 H   0  0  0  0  0  0  0  0  0  0  0  0
  1 13  1  0  0  0  0
  1 15  1  0  0  0  0
  2 12  1  0  0  0  0
  2 36  1  0  0  0  0
  3 14  1  0  0  0  0
  3 37  1  0  0  0  0
  4 16  1  0  0  0  0
  4 38  1  0  0  0  0
  5 13  1  0  0  0  0
  5 17  1  0  0  0  0
  5 18  1  0  0  0  0
  6 18  2  0  0  0  0
  6 19  1  0  0  0  0
  7 10  1  0  0  0  0
  7 18  1  0  0  0  0
  7 39  1  0  0  0  0
  8 17  1  0  0  0  0
  8 21  2  0  0  0  0
  9 20  2  0  0  0  0
  9 21  1  0  0  0  0
 10 22  2  3  0  0  0
 11 20  1  0  0  0  0
 11 41  1  0  0  0  0
 11 42  1  0  0  0  0
 12 13  1  0  0  0  0
 12 14  1  0  0  0  0
 12 30  1  0  0  0  0
 13 31  1  0  0  0  0
 14 15  1  0  0  0  0
 14 32  1  0  0  0  0
 15 16  1  0  0  0  0
 15 33  1  0  0  0  0
 16 34  1  0  0  0  0
 16 35  1  0  0  0  0
 17 19  2  0  0  0  0
 19 20  1  0  0  0  0
 21 40  1  0  0  0  0
 22 23  1  0  0  0  0
 22 43  1  0  0  0  0
 23 24  1  0  0  0  0
 23 44  1  0  0  0  0
 23 45  1  0  0  0  0
 24 25  2  0  0  0  0
 24 26  1  0  0  0  0
 25 27  1  0  0  0  0
 25 46  1  0  0  0  0
 26 28  2  0  0  0  0
 26 47  1  0  0  0  0
 27 29  2  0  0  0  0
 27 48  1  0  0  0  0
 28 29  1  0  0  0  0
 28 49  1  0  0  0  0
 29 50  1  0  0  0  0
M  END
> <PUBCHEM_COMPOUND_CID>
6839426

> <PUBCHEM_COMPOUND_CANONICALIZED>
1

> <PUBCHEM_CACTVS_COMPLEXITY>
564

> <PUBCHEM_CACTVS_HBOND_ACCEPTOR>
10

> <PUBCHEM_CACTVS_HBOND_DONOR>
5

> <PUBCHEM_CACTVS_ROTATABLE_BOND>
6

> <PUBCHEM_CACTVS_SUBSKEYS>
AAADceB7uAAAAAAAAAAAAAAAAAAAAWJAAAA8QAAAAAAAAFgB/AAAHgAYCAAADBzhnwY18L9uFgCgAzZjZACSgC0xEKAN2CA4VJiLeCLA2VCeZAgviALbiCfwsIIOAAAAAAAAAAAAAAAAAAAAAAAAAAAAAA==

> <PUBCHEM_IUPAC_OPENEYE_NAME>
2-[6-amino-8-[2-(2-phenylethylidene)hydrazino]purin-9-yl]-5-(hydroxymethyl)tetrahydrofuran-3,4-diol

> <PUBCHEM_IUPAC_CAS_NAME>
2-[6-amino-8-[2-(2-phenylethylidene)hydrazinyl]-9-purinyl]-5-(hydroxymethyl)oxolane-3,4-diol

> <PUBCHEM_IUPAC_NAME>
2-[6-amino-8-[2-(2-phenylethylidene)hydrazinyl]purin-9-yl]-5-(hydroxymethyl)oxolane-3,4-diol

> <PUBCHEM_IUPAC_SYSTEMATIC_NAME>
2-[6-azanyl-8-[2-(2-phenylethylidene)hydrazinyl]purin-9-yl]-5-(hydroxymethyl)oxolane-3,4-diol

> <PUBCHEM_IUPAC_TRADITIONAL_NAME>
2-[6-amino-8-(N'-phenethylidenehydrazino)purin-9-yl]-5-methylol-tetrahydrofuran-3,4-diol

> <PUBCHEM_IUPAC_INCHI>
InChI=1S/C18H21N7O4/c19-15-12-16(21-9-20-15)25(17-14(28)13(27)11(8-26)29-17)18(23-12)24-22-7-6-10-4-2-1-3-5-10/h1-5,7,9,11,13-14,17,26-28H,6,8H2,(H,23,24)(H2,19,20,21)

> <PUBCHEM_IUPAC_INCHIKEY>
BKDUFCKXFDBDJI-UHFFFAOYSA-N

> <PUBCHEM_XLOGP3>
0.8

> <PUBCHEM_EXACT_MASS>
399.165502

> <PUBCHEM_MOLECULAR_FORMULA>
C18H21N7O4

> <PUBCHEM_MOLECULAR_WEIGHT>
399.40384

> <PUBCHEM_OPENEYE_CAN_SMILES>
C1=CC=C(C=C1)CC=NNC2=NC3=C(N2C4C(C(C(O4)CO)O)O)N=CN=C3N

> <PUBCHEM_OPENEYE_ISO_SMILES>
C1=CC=C(C=C1)CC=NNC2=NC3=C(N2C4C(C(C(O4)CO)O)O)N=CN=C3N

> <PUBCHEM_CACTVS_TPSA>
164

> <PUBCHEM_MONOISOTOPIC_WEIGHT>
399.165502

> <PUBCHEM_TOTAL_CHARGE>
0

> <PUBCHEM_HEAVY_ATOM_COUNT>
29

> <PUBCHEM_ATOM_DEF_STEREO_COUNT>
0

> <PUBCHEM_ATOM_UDEF_STEREO_COUNT>
4

> <PUBCHEM_BOND_DEF_STEREO_COUNT>
0

> <PUBCHEM_BOND_UDEF_STEREO_COUNT>
1

> <PUBCHEM_ISOTOPIC_ATOM_COUNT>
0

> <PUBCHEM_COMPONENT_COUNT>
1

> <PUBCHEM_CACTVS_TAUTO_COUNT>
6

> <PUBCHEM_COORDINATE_TYPE>
1
5
255

> <PUBCHEM_BONDANNOTATIONS>
10  22  1
12  30  3
13  31  3
14  32  3
15  33  3
17  19  8
19  20  8
24  25  8
24  26  8
25  27  8
26  28  8
27  29  8
28  29  8
5  17  8
5  18  8
6  18  8
6  19  8
8  17  8
8  21  8
9  20  8
9  21  8

$$$$
