8382947
  -OEChem-11301217052D

 44 48  0     0  0  0  0  0  0999 V2000
    8.6907    0.9777    0.0000 O   0  0  0  0  0  0  0  0  0  0  0  0
    7.3991   -0.1763    0.0000 N   0  0  0  0  0  0  0  0  0  0  0  0
   11.4188    0.2880    0.0000 N   0  0  0  0  0  0  0  0  0  0  0  0
    4.5274    2.6843    0.0000 C   0  0  0  0  0  0  0  0  0  0  0  0
    5.3364    2.0965    0.0000 C   0  0  0  0  0  0  0  0  0  0  0  0
    5.0274    1.1454    0.0000 C   0  0  0  0  0  0  0  0  0  0  0  0
    3.7183    2.0965    0.0000 C   0  0  0  0  0  0  0  0  0  0  0  0
    4.0274    1.1454    0.0000 C   0  0  0  0  0  0  0  0  0  0  0  0
    5.7123    0.3607    0.0000 C   0  0  0  0  0  0  0  0  0  0  0  0
    6.3518    2.3287    0.0000 C   0  0  0  0  0  0  0  0  0  0  0  0
    6.7328    0.5694    0.0000 C   0  0  0  0  0  0  0  0  0  0  0  0
    2.7029    2.3287    0.0000 C   0  0  0  0  0  0  0  0  0  0  0  0
    3.3424    0.3607    0.0000 C   0  0  0  0  0  0  0  0  0  0  0  0
    7.0547    1.5600    0.0000 C   0  0  0  0  0  0  0  0  0  0  0  0
   10.0232   -0.5138    0.0000 C   0  0  0  0  0  0  0  0  0  0  0  0
    9.0443   -0.7179    0.0000 C   0  0  0  0  0  0  0  0  0  0  0  0
   10.7588   -1.1824    0.0000 C   0  0  0  0  0  0  0  0  0  0  0  0
   11.6259   -0.6843    0.0000 C   0  0  0  0  0  0  0  0  0  0  0  0
    2.0000    1.5600    0.0000 C   0  0  0  0  0  0  0  0  0  0  0  0
    2.3219    0.5694    0.0000 C   0  0  0  0  0  0  0  0  0  0  0  0
    8.3780    0.0278    0.0000 C   0  0  0  0  0  0  0  0  0  0  0  0
   10.4303    0.3932    0.0000 C   0  0  0  0  0  0  0  0  0  0  0  0
   10.7567   -2.1824    0.0000 C   0  0  0  0  0  0  0  0  0  0  0  0
   12.4909   -1.1861    0.0000 C   0  0  0  0  0  0  0  0  0  0  0  0
   11.6217   -2.6843    0.0000 C   0  0  0  0  0  0  0  0  0  0  0  0
   12.4888   -2.1861    0.0000 C   0  0  0  0  0  0  0  0  0  0  0  0
    4.9422    3.1450    0.0000 H   0  0  0  0  0  0  0  0  0  0  0  0
    4.1125    3.1450    0.0000 H   0  0  0  0  0  0  0  0  0  0  0  0
    5.5139   -0.2267    0.0000 H   0  0  0  0  0  0  0  0  0  0  0  0
    6.5365    2.9206    0.0000 H   0  0  0  0  0  0  0  0  0  0  0  0
    2.5182    2.9206    0.0000 H   0  0  0  0  0  0  0  0  0  0  0  0
    3.5408   -0.2267    0.0000 H   0  0  0  0  0  0  0  0  0  0  0  0
    7.6607    1.6913    0.0000 H   0  0  0  0  0  0  0  0  0  0  0  0
    8.5172   -1.0444    0.0000 H   0  0  0  0  0  0  0  0  0  0  0  0
    9.2743   -1.2937    0.0000 H   0  0  0  0  0  0  0  0  0  0  0  0
    7.2052   -0.7652    0.0000 H   0  0  0  0  0  0  0  0  0  0  0  0
    1.3940    1.6913    0.0000 H   0  0  0  0  0  0  0  0  0  0  0  0
    1.9088    0.1070    0.0000 H   0  0  0  0  0  0  0  0  0  0  0  0
   10.1214    0.9307    0.0000 H   0  0  0  0  0  0  0  0  0  0  0  0
   11.8338    0.7486    0.0000 H   0  0  0  0  0  0  0  0  0  0  0  0
   10.2191   -2.4913    0.0000 H   0  0  0  0  0  0  0  0  0  0  0  0
   13.0285   -0.8772    0.0000 H   0  0  0  0  0  0  0  0  0  0  0  0
   11.6204   -3.3043    0.0000 H   0  0  0  0  0  0  0  0  0  0  0  0
   13.0250   -2.4972    0.0000 H   0  0  0  0  0  0  0  0  0  0  0  0
  1 21  2  0  0  0  0
  2 11  1  0  0  0  0
  2 21  1  0  0  0  0
  2 36  1  0  0  0  0
  3 18  1  0  0  0  0
  3 22  1  0  0  0  0
  3 40  1  0  0  0  0
  4  5  1  0  0  0  0
  4  7  1  0  0  0  0
  4 27  1  0  0  0  0
  4 28  1  0  0  0  0
  5  6  2  0  0  0  0
  5 10  1  0  0  0  0
  6  8  1  0  0  0  0
  6  9  1  0  0  0  0
  7  8  1  0  0  0  0
  7 12  2  0  0  0  0
  8 13  2  0  0  0  0
  9 11  2  0  0  0  0
  9 29  1  0  0  0  0
 10 14  2  0  0  0  0
 10 30  1  0  0  0  0
 11 14  1  0  0  0  0
 12 19  1  0  0  0  0
 12 31  1  0  0  0  0
 13 20  1  0  0  0  0
 13 32  1  0  0  0  0
 14 33  1  0  0  0  0
 15 16  1  0  0  0  0
 15 17  1  0  0  0  0
 15 22  2  0  0  0  0
 16 21  1  0  0  0  0
 16 34  1  0  0  0  0
 16 35  1  0  0  0  0
 17 18  1  0  0  0  0
 17 23  2  0  0  0  0
 18 24  2  0  0  0  0
 19 20  2  0  0  0  0
 19 37  1  0  0  0  0
 20 38  1  0  0  0  0
 22 39  1  0  0  0  0
 23 25  1  0  0  0  0
 23 41  1  0  0  0  0
 24 26  1  0  0  0  0
 24 42  1  0  0  0  0
 25 26  2  0  0  0  0
 25 43  1  0  0  0  0
 26 44  1  0  0  0  0
M  END
> <PUBCHEM_COMPOUND_CID>
8382947

> <PUBCHEM_COMPOUND_CANONICALIZED>
1

> <PUBCHEM_CACTVS_COMPLEXITY>
520

> <PUBCHEM_CACTVS_HBOND_ACCEPTOR>
1

> <PUBCHEM_CACTVS_HBOND_DONOR>
2

> <PUBCHEM_CACTVS_ROTATABLE_BOND>
3

> <PUBCHEM_CACTVS_SUBSKEYS>
AAADceB7IAAAAAAAAAAAAAAAAAAAAeIAAAAwYMAAAAAAAHgB9AAAHgAQAAAADAjBngQ8wPLJkACoAzV3VACCgCAxAiAI2aE4ZJgIIPLAlZGEIAhglADIyAccicCeiAAAQAASAAAQAACAACQAAQAACAAAAA==

> <PUBCHEM_IUPAC_OPENEYE_NAME>
N-(9H-fluoren-3-yl)-2-(1H-indol-3-yl)acetamide

> <PUBCHEM_IUPAC_CAS_NAME>
N-(9H-fluoren-3-yl)-2-(1H-indol-3-yl)acetamide

> <PUBCHEM_IUPAC_NAME>
N-(9H-fluoren-3-yl)-2-(1H-indol-3-yl)acetamide

> <PUBCHEM_IUPAC_SYSTEMATIC_NAME>
N-(9H-fluoren-3-yl)-2-(1H-indol-3-yl)ethanamide

> <PUBCHEM_IUPAC_TRADITIONAL_NAME>
N-(9H-fluoren-3-yl)-2-(1H-indol-3-yl)acetamide

> <PUBCHEM_IUPAC_INCHI>
InChI=1S/C23H18N2O/c26-23(12-17-14-24-22-8-4-3-7-20(17)22)25-18-10-9-16-11-15-5-1-2-6-19(15)21(16)13-18/h1-10,13-14,24H,11-12H2,(H,25,26)

> <PUBCHEM_IUPAC_INCHIKEY>
AIXGOVZQRITYDK-UHFFFAOYSA-N

> <PUBCHEM_XLOGP3>
4.3

> <PUBCHEM_EXACT_MASS>
338.141913

> <PUBCHEM_MOLECULAR_FORMULA>
C23H18N2O

> <PUBCHEM_MOLECULAR_WEIGHT>
338.40182

> <PUBCHEM_OPENEYE_CAN_SMILES>
C1C2=C(C=C(C=C2)NC(=O)CC3=CNC4=CC=CC=C43)C5=CC=CC=C51

> <PUBCHEM_OPENEYE_ISO_SMILES>
C1C2=C(C=C(C=C2)NC(=O)CC3=CNC4=CC=CC=C43)C5=CC=CC=C51

> <PUBCHEM_CACTVS_TPSA>
44.9

> <PUBCHEM_MONOISOTOPIC_WEIGHT>
338.141913

> <PUBCHEM_TOTAL_CHARGE>
0

> <PUBCHEM_HEAVY_ATOM_COUNT>
26

> <PUBCHEM_ATOM_DEF_STEREO_COUNT>
0

> <PUBCHEM_ATOM_UDEF_STEREO_COUNT>
0

> <PUBCHEM_BOND_DEF_STEREO_COUNT>
0

> <PUBCHEM_BOND_UDEF_STEREO_COUNT>
0

> <PUBCHEM_ISOTOPIC_ATOM_COUNT>
0

> <PUBCHEM_COMPONENT_COUNT>
1

> <PUBCHEM_CACTVS_TAUTO_COUNT>
3

> <PUBCHEM_COORDINATE_TYPE>
1
5
255

> <PUBCHEM_BONDANNOTATIONS>
10  14  8
11  14  8
12  19  8
13  20  8
15  17  8
15  22  8
17  18  8
17  23  8
18  24  8
19  20  8
23  25  8
24  26  8
25  26  8
3  18  8
3  22  8
5  10  8
5  6  8
6  9  8
7  12  8
7  8  8
8  13  8
9  11  8

$$$$
8382948
  -OEChem-11301217052D

 39 41  0     0  0  0  0  0  0999 V2000
    8.6907    0.2653    0.0000 O   0  0  0  0  0  0  0  0  0  0  0  0
    7.3991   -0.8887    0.0000 N   0  0  0  0  0  0  0  0  0  0  0  0
    4.5274    1.9719    0.0000 C   0  0  0  0  0  0  0  0  0  0  0  0
    5.3364    1.3841    0.0000 C   0  0  0  0  0  0  0  0  0  0  0  0
    5.0274    0.4330    0.0000 C   0  0  0  0  0  0  0  0  0  0  0  0
    3.7183    1.3841    0.0000 C   0  0  0  0  0  0  0  0  0  0  0  0
    4.0274    0.4330    0.0000 C   0  0  0  0  0  0  0  0  0  0  0  0
    5.7123   -0.3517    0.0000 C   0  0  0  0  0  0  0  0  0  0  0  0
   10.0232   -1.2262    0.0000 C   0  0  0  0  0  0  0  0  0  0  0  0
    6.7328   -0.1430    0.0000 C   0  0  0  0  0  0  0  0  0  0  0  0
    6.3518    1.6163    0.0000 C   0  0  0  0  0  0  0  0  0  0  0  0
    9.0443   -1.4303    0.0000 C   0  0  0  0  0  0  0  0  0  0  0  0
    2.7029    1.6163    0.0000 C   0  0  0  0  0  0  0  0  0  0  0  0
    3.3424   -0.3517    0.0000 C   0  0  0  0  0  0  0  0  0  0  0  0
    7.0547    0.8477    0.0000 C   0  0  0  0  0  0  0  0  0  0  0  0
    8.3780   -0.6846    0.0000 C   0  0  0  0  0  0  0  0  0  0  0  0
   10.6895   -1.9719    0.0000 C   0  0  0  0  0  0  0  0  0  0  0  0
   10.3359   -0.2763    0.0000 C   0  0  0  0  0  0  0  0  0  0  0  0
    2.0000    0.8477    0.0000 C   0  0  0  0  0  0  0  0  0  0  0  0
    2.3219   -0.1430    0.0000 C   0  0  0  0  0  0  0  0  0  0  0  0
    4.9422    2.4326    0.0000 H   0  0  0  0  0  0  0  0  0  0  0  0
    4.1125    2.4326    0.0000 H   0  0  0  0  0  0  0  0  0  0  0  0
    5.5139   -0.9391    0.0000 H   0  0  0  0  0  0  0  0  0  0  0  0
    9.8294   -1.8151    0.0000 H   0  0  0  0  0  0  0  0  0  0  0  0
    6.5365    2.2082    0.0000 H   0  0  0  0  0  0  0  0  0  0  0  0
    8.5172   -1.7568    0.0000 H   0  0  0  0  0  0  0  0  0  0  0  0
    9.2743   -2.0060    0.0000 H   0  0  0  0  0  0  0  0  0  0  0  0
    2.5182    2.2082    0.0000 H   0  0  0  0  0  0  0  0  0  0  0  0
    3.5408   -0.9391    0.0000 H   0  0  0  0  0  0  0  0  0  0  0  0
    7.6607    0.9789    0.0000 H   0  0  0  0  0  0  0  0  0  0  0  0
    7.2052   -1.4776    0.0000 H   0  0  0  0  0  0  0  0  0  0  0  0
   10.2272   -2.3850    0.0000 H   0  0  0  0  0  0  0  0  0  0  0  0
   10.9248   -0.4702    0.0000 H   0  0  0  0  0  0  0  0  0  0  0  0
   10.5298    0.3126    0.0000 H   0  0  0  0  0  0  0  0  0  0  0  0
    9.7470   -0.0824    0.0000 H   0  0  0  0  0  0  0  0  0  0  0  0
   11.1026   -2.4342    0.0000 H   0  0  0  0  0  0  0  0  0  0  0  0
   11.1518   -1.5588    0.0000 H   0  0  0  0  0  0  0  0  0  0  0  0
    1.3940    0.9789    0.0000 H   0  0  0  0  0  0  0  0  0  0  0  0
    1.9088   -0.6053    0.0000 H   0  0  0  0  0  0  0  0  0  0  0  0
  1 16  2  0  0  0  0
  2 10  1  0  0  0  0
  2 16  1  0  0  0  0
  2 31  1  0  0  0  0
  3  4  1  0  0  0  0
  3  6  1  0  0  0  0
  3 21  1  0  0  0  0
  3 22  1  0  0  0  0
  4  5  2  0  0  0  0
  4 11  1  0  0  0  0
  5  7  1  0  0  0  0
  5  8  1  0  0  0  0
  6  7  1  0  0  0  0
  6 13  2  0  0  0  0
  7 14  2  0  0  0  0
  8 10  2  0  0  0  0
  8 23  1  0  0  0  0
  9 12  1  0  0  0  0
  9 17  1  0  0  0  0
  9 18  1  0  0  0  0
  9 24  1  0  0  0  0
 10 15  1  0  0  0  0
 11 15  2  0  0  0  0
 11 25  1  0  0  0  0
 12 16  1  0  0  0  0
 12 26  1  0  0  0  0
 12 27  1  0  0  0  0
 13 19  1  0  0  0  0
 13 28  1  0  0  0  0
 14 20  1  0  0  0  0
 14 29  1  0  0  0  0
 15 30  1  0  0  0  0
 17 32  1  0  0  0  0
 17 36  1  0  0  0  0
 17 37  1  0  0  0  0
 18 33  1  0  0  0  0
 18 34  1  0  0  0  0
 18 35  1  0  0  0  0
 19 20  2  0  0  0  0
 19 38  1  0  0  0  0
 20 39  1  0  0  0  0
M  END
> <PUBCHEM_COMPOUND_CID>
8382948

> <PUBCHEM_COMPOUND_CANONICALIZED>
1

> <PUBCHEM_CACTVS_COMPLEXITY>
351

> <PUBCHEM_CACTVS_HBOND_ACCEPTOR>
1

> <PUBCHEM_CACTVS_HBOND_DONOR>
1

> <PUBCHEM_CACTVS_ROTATABLE_BOND>
3

> <PUBCHEM_CACTVS_SUBSKEYS>
AAADceB6IAAAAAAAAAAAAAAAAAAAAYAAAAAwYAAAAAAAAGABQAAAHgAQAAAADQiBmAAywILAAACIAiVSUACCAAAhAgAIiAEAZIgIIDLAkZGEIAhglADIyAcQgMAOiAAAQAAQAAAQAACAACAAAQAACAAAAA==

> <PUBCHEM_IUPAC_OPENEYE_NAME>
N-(9H-fluoren-3-yl)-3-methyl-butanamide

> <PUBCHEM_IUPAC_CAS_NAME>
N-(9H-fluoren-3-yl)-3-methylbutanamide

> <PUBCHEM_IUPAC_NAME>
N-(9H-fluoren-3-yl)-3-methylbutanamide

> <PUBCHEM_IUPAC_SYSTEMATIC_NAME>
N-(9H-fluoren-3-yl)-3-methyl-butanamide

> <PUBCHEM_IUPAC_TRADITIONAL_NAME>
N-(9H-fluoren-3-yl)-3-methyl-butyramide

> <PUBCHEM_IUPAC_INCHI>
InChI=1S/C18H19NO/c1-12(2)9-18(20)19-15-8-7-14-10-13-5-3-4-6-16(13)17(14)11-15/h3-8,11-12H,9-10H2,1-2H3,(H,19,20)

> <PUBCHEM_IUPAC_INCHIKEY>
QHLUGPICPGBPCO-UHFFFAOYSA-N

> <PUBCHEM_XLOGP3>
4.9

> <PUBCHEM_EXACT_MASS>
265.146664

> <PUBCHEM_MOLECULAR_FORMULA>
C18H19NO

> <PUBCHEM_MOLECULAR_WEIGHT>
265.34956

> <PUBCHEM_OPENEYE_CAN_SMILES>
CC(C)CC(=O)NC1=CC2=C(CC3=CC=CC=C32)C=C1

> <PUBCHEM_OPENEYE_ISO_SMILES>
CC(C)CC(=O)NC1=CC2=C(CC3=CC=CC=C32)C=C1

> <PUBCHEM_CACTVS_TPSA>
29.1

> <PUBCHEM_MONOISOTOPIC_WEIGHT>
265.146664

> <PUBCHEM_TOTAL_CHARGE>
0

> <PUBCHEM_HEAVY_ATOM_COUNT>
20

> <PUBCHEM_ATOM_DEF_STEREO_COUNT>
0

> <PUBCHEM_ATOM_UDEF_STEREO_COUNT>
0

> <PUBCHEM_BOND_DEF_STEREO_COUNT>
0

> <PUBCHEM_BOND_UDEF_STEREO_COUNT>
0

> <PUBCHEM_ISOTOPIC_ATOM_COUNT>
0

> <PUBCHEM_COMPONENT_COUNT>
1

> <PUBCHEM_CACTVS_TAUTO_COUNT>
3

> <PUBCHEM_COORDINATE_TYPE>
1
5
255

> <PUBCHEM_BONDANNOTATIONS>
10  15  8
11  15  8
13  19  8
14  20  8
19  20  8
4  11  8
4  5  8
5  8  8
6  13  8
6  7  8
7  14  8
8  10  8

$$$$
8389914
  -OEChem-11301217052D

 57 59  0     1  0  0  0  0  0999 V2000
    7.9244   -1.4428    0.0000 O   0  0  0  0  0  0  0  0  0  0  0  0
    8.5458    0.4582    0.0000 N   0  3  3  0  0  0  0  0  0  0  0  0
    6.2781   -0.9048    0.0000 N   0  0  0  0  0  0  0  0  0  0  0  0
    4.6783   -4.6215    0.0000 N   0  0  0  0  0  0  0  0  0  0  0  0
    9.5243    0.6644    0.0000 C   0  0  0  0  0  0  0  0  0  0  0  0
    7.5673    0.2520    0.0000 C   0  0  0  0  0  0  0  0  0  0  0  0
    9.8349    1.6149    0.0000 C   0  0  0  0  0  0  0  0  0  0  0  0
    8.3396    1.4367    0.0000 C   0  0  0  0  0  0  0  0  0  0  0  0
    7.2566   -0.6985    0.0000 C   0  0  0  0  0  0  0  0  0  0  0  0
    4.9889   -2.0615    0.0000 C   0  0  0  0  0  0  0  0  0  0  0  0
    5.9674   -1.8553    0.0000 C   0  0  0  0  0  0  0  0  0  0  0  0
   10.4563    3.5160    0.0000 C   0  0  0  0  0  0  0  0  0  0  0  0
   10.7669    4.4665    0.0000 C   0  0  0  0  0  0  0  0  0  0  0  0
    4.6783   -3.0120    0.0000 C   0  0  0  0  0  0  0  0  0  0  0  0
   10.8134    1.8212    0.0000 C   0  0  0  0  0  0  0  0  0  0  0  0
    9.1671    2.3592    0.0000 C   0  0  0  0  0  0  0  0  0  0  0  0
    3.7320   -3.3168    0.0000 C   0  0  0  0  0  0  0  0  0  0  0  0
   11.1241    2.7717    0.0000 C   0  0  0  0  0  0  0  0  0  0  0  0
    9.4778    3.3098    0.0000 C   0  0  0  0  0  0  0  0  0  0  0  0
    3.7320   -4.3168    0.0000 C   0  0  0  0  0  0  0  0  0  0  0  0
    5.2619   -3.8168    0.0000 C   0  0  0  0  0  0  0  0  0  0  0  0
   11.7454    4.6727    0.0000 C   0  0  0  0  0  0  0  0  0  0  0  0
   10.0991    5.2108    0.0000 C   0  0  0  0  0  0  0  0  0  0  0  0
    2.8660   -2.8168    0.0000 C   0  0  0  0  0  0  0  0  0  0  0  0
    2.8660   -4.8168    0.0000 C   0  0  0  0  0  0  0  0  0  0  0  0
    2.0000   -3.3168    0.0000 C   0  0  0  0  0  0  0  0  0  0  0  0
    2.0000   -4.3168    0.0000 C   0  0  0  0  0  0  0  0  0  0  0  0
    8.6736   -0.1485    0.0000 H   0  0  0  0  0  0  0  0  0  0  0  0
    9.5448    0.0448    0.0000 H   0  0  0  0  0  0  0  0  0  0  0  0
   10.1381    0.5771    0.0000 H   0  0  0  0  0  0  0  0  0  0  0  0
    7.5467    0.8716    0.0000 H   0  0  0  0  0  0  0  0  0  0  0  0
    6.9534    0.3393    0.0000 H   0  0  0  0  0  0  0  0  0  0  0  0
    8.9462    1.5646    0.0000 H   0  0  0  0  0  0  0  0  0  0  0  0
    8.2117    2.0434    0.0000 H   0  0  0  0  0  0  0  0  0  0  0  0
    7.7329    1.3088    0.0000 H   0  0  0  0  0  0  0  0  0  0  0  0
    4.9684   -1.4418    0.0000 H   0  0  0  0  0  0  0  0  0  0  0  0
    4.3751   -1.9742    0.0000 H   0  0  0  0  0  0  0  0  0  0  0  0
    5.9880   -2.4749    0.0000 H   0  0  0  0  0  0  0  0  0  0  0  0
    6.5812   -1.9426    0.0000 H   0  0  0  0  0  0  0  0  0  0  0  0
   10.9595    5.0558    0.0000 H   0  0  0  0  0  0  0  0  0  0  0  0
   11.2275    1.3597    0.0000 H   0  0  0  0  0  0  0  0  0  0  0  0
    8.5604    2.2314    0.0000 H   0  0  0  0  0  0  0  0  0  0  0  0
    5.8640   -0.4433    0.0000 H   0  0  0  0  0  0  0  0  0  0  0  0
   11.7308    2.8995    0.0000 H   0  0  0  0  0  0  0  0  0  0  0  0
    9.0637    3.7712    0.0000 H   0  0  0  0  0  0  0  0  0  0  0  0
    5.8819   -3.8168    0.0000 H   0  0  0  0  0  0  0  0  0  0  0  0
    4.8709   -5.2108    0.0000 H   0  0  0  0  0  0  0  0  0  0  0  0
   11.8733    4.0660    0.0000 H   0  0  0  0  0  0  0  0  0  0  0  0
   10.5606    5.6249    0.0000 H   0  0  0  0  0  0  0  0  0  0  0  0
    9.6850    5.6723    0.0000 H   0  0  0  0  0  0  0  0  0  0  0  0
    9.6376    4.7967    0.0000 H   0  0  0  0  0  0  0  0  0  0  0  0
   12.3521    4.8006    0.0000 H   0  0  0  0  0  0  0  0  0  0  0  0
   11.6176    5.2794    0.0000 H   0  0  0  0  0  0  0  0  0  0  0  0
    2.8660   -2.1968    0.0000 H   0  0  0  0  0  0  0  0  0  0  0  0
    2.8660   -5.4368    0.0000 H   0  0  0  0  0  0  0  0  0  0  0  0
    1.4631   -3.0067    0.0000 H   0  0  0  0  0  0  0  0  0  0  0  0
    1.4631   -4.6268    0.0000 H   0  0  0  0  0  0  0  0  0  0  0  0
  1  9  2  0  0  0  0
  2  5  1  0  0  0  0
  2  6  1  0  0  0  0
  2  8  1  0  0  0  0
  2 28  1  0  0  0  0
  3  9  1  0  0  0  0
  3 11  1  0  0  0  0
  3 43  1  0  0  0  0
  4 20  1  0  0  0  0
  4 21  1  0  0  0  0
  4 47  1  0  0  0  0
  5  7  1  0  0  0  0
  5 29  1  0  0  0  0
  5 30  1  0  0  0  0
  6  9  1  0  0  0  0
  6 31  1  0  0  0  0
  6 32  1  0  0  0  0
  7 15  2  0  0  0  0
  7 16  1  0  0  0  0
  8 33  1  0  0  0  0
  8 34  1  0  0  0  0
  8 35  1  0  0  0  0
 10 11  1  0  0  0  0
 10 14  1  0  0  0  0
 10 36  1  0  0  0  0
 10 37  1  0  0  0  0
 11 38  1  0  0  0  0
 11 39  1  0  0  0  0
 12 13  1  0  0  0  0
 12 18  2  0  0  0  0
 12 19  1  0  0  0  0
 13 22  1  0  0  0  0
 13 23  1  0  0  0  0
 13 40  1  0  0  0  0
 14 17  1  0  0  0  0
 14 21  2  0  0  0  0
 15 18  1  0  0  0  0
 15 41  1  0  0  0  0
 16 19  2  0  0  0  0
 16 42  1  0  0  0  0
 17 20  1  0  0  0  0
 17 24  2  0  0  0  0
 18 44  1  0  0  0  0
 19 45  1  0  0  0  0
 20 25  2  0  0  0  0
 21 46  1  0  0  0  0
 22 48  1  0  0  0  0
 22 52  1  0  0  0  0
 22 53  1  0  0  0  0
 23 49  1  0  0  0  0
 23 50  1  0  0  0  0
 23 51  1  0  0  0  0
 24 26  1  0  0  0  0
 24 54  1  0  0  0  0
 25 27  1  0  0  0  0
 25 55  1  0  0  0  0
 26 27  2  0  0  0  0
 26 56  1  0  0  0  0
 27 57  1  0  0  0  0
M  CHG  1   2   1
M  END
> <PUBCHEM_COMPOUND_CID>
8389914

> <PUBCHEM_COMPOUND_CANONICALIZED>
1

> <PUBCHEM_CACTVS_COMPLEXITY>
459

> <PUBCHEM_CACTVS_HBOND_ACCEPTOR>
1

> <PUBCHEM_CACTVS_HBOND_DONOR>
3

> <PUBCHEM_CACTVS_ROTATABLE_BOND>
8

> <PUBCHEM_CACTVS_SUBSKEYS>
AAADceB7IAAAAAAAAAAAAAAAAAAAAWAAAAAwYAAAAAAAAFgB9AAAHgAQAAAADQjBngQ+wPPJkACoAzV3VACCgCAxAiAI2aC4ZJgIYOLAkbGUIAhglgDIyAcQgMAOwAAAAAACAACAAAAAAAQAAAAAAAAAAA==

> <PUBCHEM_IUPAC_OPENEYE_NAME>
[2-[2-(1H-indol-3-yl)ethylamino]-2-oxo-ethyl]-[(4-isopropylphenyl)methyl]-methyl-ammonium

> <PUBCHEM_IUPAC_CAS_NAME>
[2-[2-(1H-indol-3-yl)ethylamino]-2-oxoethyl]-methyl-[(4-propan-2-ylphenyl)methyl]ammonium

> <PUBCHEM_IUPAC_NAME>
[2-[2-(1H-indol-3-yl)ethylamino]-2-oxoethyl]-methyl-[(4-propan-2-ylphenyl)methyl]azanium

> <PUBCHEM_IUPAC_SYSTEMATIC_NAME>
[2-[2-(1H-indol-3-yl)ethylamino]-2-oxidanylidene-ethyl]-methyl-[(4-propan-2-ylphenyl)methyl]azanium

> <PUBCHEM_IUPAC_TRADITIONAL_NAME>
[2-[2-(1H-indol-3-yl)ethylamino]-2-keto-ethyl]-(4-isopropylbenzyl)-methyl-ammonium

> <PUBCHEM_IUPAC_INCHI>
InChI=1S/C23H29N3O/c1-17(2)19-10-8-18(9-11-19)15-26(3)16-23(27)24-13-12-20-14-25-22-7-5-4-6-21(20)22/h4-11,14,17,25H,12-13,15-16H2,1-3H3,(H,24,27)/p+1

> <PUBCHEM_IUPAC_INCHIKEY>
BWMWCYGYQRXPFP-UHFFFAOYSA-O

> <PUBCHEM_XLOGP3>
4.5

> <PUBCHEM_EXACT_MASS>
364.238888

> <PUBCHEM_MOLECULAR_FORMULA>
C23H30N3O+

> <PUBCHEM_MOLECULAR_WEIGHT>
364.5038

> <PUBCHEM_OPENEYE_CAN_SMILES>
CC(C)C1=CC=C(C=C1)C[NH+](C)CC(=O)NCCC2=CNC3=CC=CC=C32

> <PUBCHEM_OPENEYE_ISO_SMILES>
CC(C)C1=CC=C(C=C1)C[NH+](C)CC(=O)NCCC2=CNC3=CC=CC=C32

> <PUBCHEM_CACTVS_TPSA>
49.3

> <PUBCHEM_MONOISOTOPIC_WEIGHT>
364.238888

> <PUBCHEM_TOTAL_CHARGE>
1

> <PUBCHEM_HEAVY_ATOM_COUNT>
27

> <PUBCHEM_ATOM_DEF_STEREO_COUNT>
0

> <PUBCHEM_ATOM_UDEF_STEREO_COUNT>
0

> <PUBCHEM_BOND_DEF_STEREO_COUNT>
0

> <PUBCHEM_BOND_UDEF_STEREO_COUNT>
0

> <PUBCHEM_ISOTOPIC_ATOM_COUNT>
0

> <PUBCHEM_COMPONENT_COUNT>
1

> <PUBCHEM_CACTVS_TAUTO_COUNT>
2

> <PUBCHEM_COORDINATE_TYPE>
1
5
255

> <PUBCHEM_BONDANNOTATIONS>
12  18  8
12  19  8
14  17  8
14  21  8
15  18  8
16  19  8
17  20  8
17  24  8
20  25  8
24  26  8
25  27  8
26  27  8
4  20  8
4  21  8
7  15  8
7  16  8

$$$$
8397389
  -OEChem-11301217062D

 38 40  0     0  0  0  0  0  0999 V2000
    6.2619    1.9335    0.0000 S   0  0  0  0  0  0  0  0  0  0  0  0
    4.6783    2.7383    0.0000 S   0  0  0  0  0  0  0  0  0  0  0  0
    9.2619    0.2015    0.0000 O   0  0  0  0  0  0  0  0  0  0  0  0
    7.7619   -0.6645    0.0000 O   0  0  0  0  0  0  0  0  0  0  0  0
    4.6783    1.1288    0.0000 N   0  0  0  0  0  0  0  0  0  0  0  0
   11.2619   -1.5306    0.0000 N   0  0  0  0  0  0  0  0  0  0  0  0
   11.2619    0.2015    0.0000 N   0  0  0  0  0  0  0  0  0  0  0  0
   12.7619   -0.6645    0.0000 N   0  0  0  0  0  0  0  0  0  0  0  0
   12.7619   -2.3966    0.0000 N   0  0  0  0  0  0  0  0  0  0  0  0
   12.7619    1.0675    0.0000 N   0  0  0  0  0  0  0  0  0  0  0  0
    7.7619    1.0675    0.0000 C   0  0  0  0  0  0  0  0  0  0  0  0
    6.7619    1.0675    0.0000 C   0  0  0  0  0  0  0  0  0  0  0  0
    3.7320    2.4335    0.0000 C   0  0  0  0  0  0  0  0  0  0  0  0
    3.7320    1.4335    0.0000 C   0  0  0  0  0  0  0  0  0  0  0  0
    5.2619    1.9335    0.0000 C   0  0  0  0  0  0  0  0  0  0  0  0
    8.2619    0.2015    0.0000 C   0  0  0  0  0  0  0  0  0  0  0  0
    2.8660    2.9335    0.0000 C   0  0  0  0  0  0  0  0  0  0  0  0
    2.8660    0.9335    0.0000 C   0  0  0  0  0  0  0  0  0  0  0  0
    9.7619   -0.6645    0.0000 C   0  0  0  0  0  0  0  0  0  0  0  0
    2.0000    2.4335    0.0000 C   0  0  0  0  0  0  0  0  0  0  0  0
    2.0000    1.4335    0.0000 C   0  0  0  0  0  0  0  0  0  0  0  0
   10.7619   -0.6645    0.0000 C   0  0  0  0  0  0  0  0  0  0  0  0
   12.2619   -1.5306    0.0000 C   0  0  0  0  0  0  0  0  0  0  0  0
   12.2619    0.2015    0.0000 C   0  0  0  0  0  0  0  0  0  0  0  0
    8.3445    1.2796    0.0000 H   0  0  0  0  0  0  0  0  0  0  0  0
    7.6542    1.6781    0.0000 H   0  0  0  0  0  0  0  0  0  0  0  0
    6.1793    0.8555    0.0000 H   0  0  0  0  0  0  0  0  0  0  0  0
    6.8695    0.4569    0.0000 H   0  0  0  0  0  0  0  0  0  0  0  0
    2.8660    3.5535    0.0000 H   0  0  0  0  0  0  0  0  0  0  0  0
    2.8660    0.3135    0.0000 H   0  0  0  0  0  0  0  0  0  0  0  0
    9.1793   -0.8766    0.0000 H   0  0  0  0  0  0  0  0  0  0  0  0
    9.8695   -1.2751    0.0000 H   0  0  0  0  0  0  0  0  0  0  0  0
    1.4631    2.7435    0.0000 H   0  0  0  0  0  0  0  0  0  0  0  0
    1.4631    1.1235    0.0000 H   0  0  0  0  0  0  0  0  0  0  0  0
   13.3819   -2.3966    0.0000 H   0  0  0  0  0  0  0  0  0  0  0  0
   12.4519   -2.9335    0.0000 H   0  0  0  0  0  0  0  0  0  0  0  0
   13.3819    1.0675    0.0000 H   0  0  0  0  0  0  0  0  0  0  0  0
   12.4519    1.6044    0.0000 H   0  0  0  0  0  0  0  0  0  0  0  0
  1 12  1  0  0  0  0
  1 15  1  0  0  0  0
  2 13  1  0  0  0  0
  2 15  1  0  0  0  0
  3 16  1  0  0  0  0
  3 19  1  0  0  0  0
  4 16  2  0  0  0  0
  5 14  1  0  0  0  0
  5 15  2  0  0  0  0
  6 22  2  0  0  0  0
  6 23  1  0  0  0  0
  7 22  1  0  0  0  0
  7 24  2  0  0  0  0
  8 23  2  0  0  0  0
  8 24  1  0  0  0  0
  9 23  1  0  0  0  0
  9 35  1  0  0  0  0
  9 36  1  0  0  0  0
 10 24  1  0  0  0  0
 10 37  1  0  0  0  0
 10 38  1  0  0  0  0
 11 12  1  0  0  0  0
 11 16  1  0  0  0  0
 11 25  1  0  0  0  0
 11 26  1  0  0  0  0
 12 27  1  0  0  0  0
 12 28  1  0  0  0  0
 13 14  1  0  0  0  0
 13 17  2  0  0  0  0
 14 18  2  0  0  0  0
 17 20  1  0  0  0  0
 17 29  1  0  0  0  0
 18 21  1  0  0  0  0
 18 30  1  0  0  0  0
 19 22  1  0  0  0  0
 19 31  1  0  0  0  0
 19 32  1  0  0  0  0
 20 21  2  0  0  0  0
 20 33  1  0  0  0  0
 21 34  1  0  0  0  0
M  END
> <PUBCHEM_COMPOUND_CID>
8397389

> <PUBCHEM_COMPOUND_CANONICALIZED>
1

> <PUBCHEM_CACTVS_COMPLEXITY>
422

> <PUBCHEM_CACTVS_HBOND_ACCEPTOR>
10

> <PUBCHEM_CACTVS_HBOND_DONOR>
2

> <PUBCHEM_CACTVS_ROTATABLE_BOND>
7

> <PUBCHEM_CACTVS_SUBSKEYS>
AAADccBzsABgAAAAAAAAAAAAAAAAAWAAAAA8QAAAAAAAAFgB/AAAHgQQAAAACAil1wKx2bZIFAisASbybASD8alhCrhJmD0wZJiKKKLgmZGHIAhogAJYyAcQAAAAAAAAAAAAAQAAAAAAAAACAAAAAAAAAA==

> <PUBCHEM_IUPAC_OPENEYE_NAME>
(4,6-diamino-1,3,5-triazin-2-yl)methyl 3-(1,3-benzothiazol-2-ylsulfanyl)propanoate

> <PUBCHEM_IUPAC_CAS_NAME>
3-(1,3-benzothiazol-2-ylthio)propanoic acid (4,6-diamino-1,3,5-triazin-2-yl)methyl ester

> <PUBCHEM_IUPAC_NAME>
(4,6-diamino-1,3,5-triazin-2-yl)methyl 3-(1,3-benzothiazol-2-ylsulfanyl)propanoate

> <PUBCHEM_IUPAC_SYSTEMATIC_NAME>
[4,6-bis(azanyl)-1,3,5-triazin-2-yl]methyl 3-(1,3-benzothiazol-2-ylsulfanyl)propanoate

> <PUBCHEM_IUPAC_TRADITIONAL_NAME>
3-(1,3-benzothiazol-2-ylthio)propionic acid (4,6-diamino-s-triazin-2-yl)methyl ester

> <PUBCHEM_IUPAC_INCHI>
InChI=1S/C14H14N6O2S2/c15-12-18-10(19-13(16)20-12)7-22-11(21)5-6-23-14-17-8-3-1-2-4-9(8)24-14/h1-4H,5-7H2,(H4,15,16,18,19,20)

> <PUBCHEM_IUPAC_INCHIKEY>
GIXPRLVGZKIRBQ-UHFFFAOYSA-N

> <PUBCHEM_XLOGP3>
1

> <PUBCHEM_EXACT_MASS>
362.061966

> <PUBCHEM_MOLECULAR_FORMULA>
C14H14N6O2S2

> <PUBCHEM_MOLECULAR_WEIGHT>
362.42996

> <PUBCHEM_OPENEYE_CAN_SMILES>
C1=CC=C2C(=C1)N=C(S2)SCCC(=O)OCC3=NC(=NC(=N3)N)N

> <PUBCHEM_OPENEYE_ISO_SMILES>
C1=CC=C2C(=C1)N=C(S2)SCCC(=O)OCC3=NC(=NC(=N3)N)N

> <PUBCHEM_CACTVS_TPSA>
183

> <PUBCHEM_MONOISOTOPIC_WEIGHT>
362.061966

> <PUBCHEM_TOTAL_CHARGE>
0

> <PUBCHEM_HEAVY_ATOM_COUNT>
24

> <PUBCHEM_ATOM_DEF_STEREO_COUNT>
0

> <PUBCHEM_ATOM_UDEF_STEREO_COUNT>
0

> <PUBCHEM_BOND_DEF_STEREO_COUNT>
0

> <PUBCHEM_BOND_UDEF_STEREO_COUNT>
0

> <PUBCHEM_ISOTOPIC_ATOM_COUNT>
0

> <PUBCHEM_COMPONENT_COUNT>
1

> <PUBCHEM_CACTVS_TAUTO_COUNT>
5

> <PUBCHEM_COORDINATE_TYPE>
1
5
255

> <PUBCHEM_BONDANNOTATIONS>
13  14  8
13  17  8
14  18  8
17  20  8
18  21  8
2  13  8
2  15  8
20  21  8
5  14  8
5  15  8
6  22  8
6  23  8
7  22  8
7  24  8
8  23  8
8  24  8

$$$$
