30377317
  -OEChem-11301217422D

 23 24  0     0  0  0  0  0  0999 V2000
    8.2619   -1.5630    0.0000 Cl  0  0  0  0  0  0  0  0  0  0  0  0
    6.2619    0.1690    0.0000 S   0  0  0  0  0  0  0  0  0  0  0  0
    4.6783    0.9737    0.0000 N   0  0  0  0  0  0  0  0  0  0  0  0
    3.7320    0.6690    0.0000 C   0  0  0  0  0  0  0  0  0  0  0  0
    3.7320   -0.3310    0.0000 C   0  0  0  0  0  0  0  0  0  0  0  0
    5.2619    0.1690    0.0000 C   0  0  0  0  0  0  0  0  0  0  0  0
    4.6783   -0.6357    0.0000 C   0  0  0  0  0  0  0  0  0  0  0  0
    2.8660    1.1690    0.0000 C   0  0  0  0  0  0  0  0  0  0  0  0
    2.8660   -0.8310    0.0000 C   0  0  0  0  0  0  0  0  0  0  0  0
    2.0000    0.6690    0.0000 C   0  0  0  0  0  0  0  0  0  0  0  0
    2.0000   -0.3310    0.0000 C   0  0  0  0  0  0  0  0  0  0  0  0
    6.7619   -0.6970    0.0000 C   0  0  0  0  0  0  0  0  0  0  0  0
    7.7619   -0.6970    0.0000 C   0  0  0  0  0  0  0  0  0  0  0  0
    4.8709    1.5630    0.0000 H   0  0  0  0  0  0  0  0  0  0  0  0
    4.8709   -1.2251    0.0000 H   0  0  0  0  0  0  0  0  0  0  0  0
    2.8660    1.7890    0.0000 H   0  0  0  0  0  0  0  0  0  0  0  0
    2.8660   -1.4510    0.0000 H   0  0  0  0  0  0  0  0  0  0  0  0
    6.1793   -0.9091    0.0000 H   0  0  0  0  0  0  0  0  0  0  0  0
    6.8695   -1.3076    0.0000 H   0  0  0  0  0  0  0  0  0  0  0  0
    1.4631    0.9790    0.0000 H   0  0  0  0  0  0  0  0  0  0  0  0
    1.4631   -0.6410    0.0000 H   0  0  0  0  0  0  0  0  0  0  0  0
    8.3445   -0.4850    0.0000 H   0  0  0  0  0  0  0  0  0  0  0  0
    7.6542   -0.0864    0.0000 H   0  0  0  0  0  0  0  0  0  0  0  0
  1 13  1  0  0  0  0
  2  6  1  0  0  0  0
  2 12  1  0  0  0  0
  3  4  1  0  0  0  0
  3  6  1  0  0  0  0
  3 14  1  0  0  0  0
  4  5  1  0  0  0  0
  4  8  2  0  0  0  0
  5  7  1  0  0  0  0
  5  9  2  0  0  0  0
  6  7  2  0  0  0  0
  7 15  1  0  0  0  0
  8 10  1  0  0  0  0
  8 16  1  0  0  0  0
  9 11  1  0  0  0  0
  9 17  1  0  0  0  0
 10 11  2  0  0  0  0
 10 20  1  0  0  0  0
 11 21  1  0  0  0  0
 12 13  1  0  0  0  0
 12 18  1  0  0  0  0
 12 19  1  0  0  0  0
 13 22  1  0  0  0  0
 13 23  1  0  0  0  0
M  END
> <PUBCHEM_COMPOUND_CID>
30377317

> <PUBCHEM_COMPOUND_CANONICALIZED>
1

> <PUBCHEM_CACTVS_COMPLEXITY>
165

> <PUBCHEM_CACTVS_HBOND_ACCEPTOR>
1

> <PUBCHEM_CACTVS_HBOND_DONOR>
1

> <PUBCHEM_CACTVS_ROTATABLE_BOND>
3

> <PUBCHEM_CACTVS_SUBSKEYS>
AAADccByAABEAAAAAAAAAAAAAAAAAWAAAAAwAAAAAAAAAFgB8AAAHAYQAAAADAuFXkCwwfLJkAigAyRiRACC0iBhCjAImTgwZJgIIOLgkZGEIAhgkADoyAcQgIAOAAAAAAACAAAAAAAAAAQAAAAAAAAAAA==

> <PUBCHEM_IUPAC_OPENEYE_NAME>
2-(2-chloroethylsulfanyl)-1H-indole

> <PUBCHEM_IUPAC_CAS_NAME>
2-(2-chloroethylthio)-1H-indole

> <PUBCHEM_IUPAC_NAME>
2-(2-chloroethylsulfanyl)-1H-indole

> <PUBCHEM_IUPAC_SYSTEMATIC_NAME>
2-(2-chloroethylsulfanyl)-1H-indole

> <PUBCHEM_IUPAC_TRADITIONAL_NAME>
2-(2-chloroethylthio)-1H-indole

> <PUBCHEM_IUPAC_INCHI>
InChI=1S/C10H10ClNS/c11-5-6-13-10-7-8-3-1-2-4-9(8)12-10/h1-4,7,12H,5-6H2

> <PUBCHEM_IUPAC_INCHIKEY>
IPIDXOVLZKTKSF-UHFFFAOYSA-N

> <PUBCHEM_XLOGP3>
3.9

> <PUBCHEM_EXACT_MASS>
211.022248

> <PUBCHEM_MOLECULAR_FORMULA>
C10H10ClNS

> <PUBCHEM_MOLECULAR_WEIGHT>
211.7111

> <PUBCHEM_OPENEYE_CAN_SMILES>
C1=CC=C2C(=C1)C=C(N2)SCCCl

> <PUBCHEM_OPENEYE_ISO_SMILES>
C1=CC=C2C(=C1)C=C(N2)SCCCl

> <PUBCHEM_CACTVS_TPSA>
41.1

> <PUBCHEM_MONOISOTOPIC_WEIGHT>
211.022248

> <PUBCHEM_TOTAL_CHARGE>
0

> <PUBCHEM_HEAVY_ATOM_COUNT>
13

> <PUBCHEM_ATOM_DEF_STEREO_COUNT>
0

> <PUBCHEM_ATOM_UDEF_STEREO_COUNT>
0

> <PUBCHEM_BOND_DEF_STEREO_COUNT>
0

> <PUBCHEM_BOND_UDEF_STEREO_COUNT>
0

> <PUBCHEM_ISOTOPIC_ATOM_COUNT>
0

> <PUBCHEM_COMPONENT_COUNT>
1

> <PUBCHEM_CACTVS_TAUTO_COUNT>
1

> <PUBCHEM_COORDINATE_TYPE>
1
5
255

> <PUBCHEM_BONDANNOTATIONS>
10  11  8
3  4  8
3  6  8
4  5  8
4  8  8
5  7  8
5  9  8
6  7  8
8  10  8
9  11  8

$$$$
30394896
  -OEChem-11301217422D

 35 36  0     0  0  0  0  0  0999 V2000
    3.7320   -3.7500    0.0000 I   0  0  0  0  0  0  0  0  0  0  0  0
    5.4641    0.2500    0.0000 O   0  0  0  0  0  0  0  0  0  0  0  0
    3.7320    0.2500    0.0000 N   0  0  0  0  0  0  0  0  0  0  0  0
    4.5981    1.7500    0.0000 C   0  0  0  0  0  0  0  0  0  0  0  0
    5.4641    2.2500    0.0000 C   0  0  0  0  0  0  0  0  0  0  0  0
    3.7320   -0.7500    0.0000 C   0  0  0  0  0  0  0  0  0  0  0  0
    2.8660   -1.2500    0.0000 C   0  0  0  0  0  0  0  0  0  0  0  0
    4.5981    0.7500    0.0000 C   0  0  0  0  0  0  0  0  0  0  0  0
    6.3301    1.7500    0.0000 C   0  0  0  0  0  0  0  0  0  0  0  0
    5.4641    3.2500    0.0000 C   0  0  0  0  0  0  0  0  0  0  0  0
    7.1962    3.2500    0.0000 C   0  0  0  0  0  0  0  0  0  0  0  0
    7.1962    2.2500    0.0000 C   0  0  0  0  0  0  0  0  0  0  0  0
    6.3301    3.7500    0.0000 C   0  0  0  0  0  0  0  0  0  0  0  0
    4.5981   -1.2500    0.0000 C   0  0  0  0  0  0  0  0  0  0  0  0
    2.8660   -2.2500    0.0000 C   0  0  0  0  0  0  0  0  0  0  0  0
    2.0000   -0.7500    0.0000 C   0  0  0  0  0  0  0  0  0  0  0  0
    4.5981   -2.2500    0.0000 C   0  0  0  0  0  0  0  0  0  0  0  0
    3.7320   -2.7500    0.0000 C   0  0  0  0  0  0  0  0  0  0  0  0
    8.0622    3.7500    0.0000 C   0  0  0  0  0  0  0  0  0  0  0  0
    4.3860    2.3326    0.0000 H   0  0  0  0  0  0  0  0  0  0  0  0
    3.9875    1.6423    0.0000 H   0  0  0  0  0  0  0  0  0  0  0  0
    3.1951    0.5600    0.0000 H   0  0  0  0  0  0  0  0  0  0  0  0
    6.3301    1.1300    0.0000 H   0  0  0  0  0  0  0  0  0  0  0  0
    4.9272    3.5600    0.0000 H   0  0  0  0  0  0  0  0  0  0  0  0
    7.7331    1.9400    0.0000 H   0  0  0  0  0  0  0  0  0  0  0  0
    6.3301    4.3700    0.0000 H   0  0  0  0  0  0  0  0  0  0  0  0
    5.1350   -0.9400    0.0000 H   0  0  0  0  0  0  0  0  0  0  0  0
    2.3291   -2.5600    0.0000 H   0  0  0  0  0  0  0  0  0  0  0  0
    2.3100   -0.2131    0.0000 H   0  0  0  0  0  0  0  0  0  0  0  0
    1.4631   -0.4400    0.0000 H   0  0  0  0  0  0  0  0  0  0  0  0
    1.6900   -1.2869    0.0000 H   0  0  0  0  0  0  0  0  0  0  0  0
    5.1350   -2.5600    0.0000 H   0  0  0  0  0  0  0  0  0  0  0  0
    8.3722    3.2131    0.0000 H   0  0  0  0  0  0  0  0  0  0  0  0
    8.5991    4.0600    0.0000 H   0  0  0  0  0  0  0  0  0  0  0  0
    7.7522    4.2869    0.0000 H   0  0  0  0  0  0  0  0  0  0  0  0
  1 18  1  0  0  0  0
  2  8  2  0  0  0  0
  3  6  1  0  0  0  0
  3  8  1  0  0  0  0
  3 22  1  0  0  0  0
  4  5  1  0  0  0  0
  4  8  1  0  0  0  0
  4 20  1  0  0  0  0
  4 21  1  0  0  0  0
  5  9  2  0  0  0  0
  5 10  1  0  0  0  0
  6  7  2  0  0  0  0
  6 14  1  0  0  0  0
  7 15  1  0  0  0  0
  7 16  1  0  0  0  0
  9 12  1  0  0  0  0
  9 23  1  0  0  0  0
 10 13  2  0  0  0  0
 10 24  1  0  0  0  0
 11 12  2  0  0  0  0
 11 13  1  0  0  0  0
 11 19  1  0  0  0  0
 12 25  1  0  0  0  0
 13 26  1  0  0  0  0
 14 17  2  0  0  0  0
 14 27  1  0  0  0  0
 15 18  2  0  0  0  0
 15 28  1  0  0  0  0
 16 29  1  0  0  0  0
 16 30  1  0  0  0  0
 16 31  1  0  0  0  0
 17 18  1  0  0  0  0
 17 32  1  0  0  0  0
 19 33  1  0  0  0  0
 19 34  1  0  0  0  0
 19 35  1  0  0  0  0
M  END
> <PUBCHEM_COMPOUND_CID>
30394896

> <PUBCHEM_COMPOUND_CANONICALIZED>
1

> <PUBCHEM_CACTVS_COMPLEXITY>
299

> <PUBCHEM_CACTVS_HBOND_ACCEPTOR>
1

> <PUBCHEM_CACTVS_HBOND_DONOR>
1

> <PUBCHEM_CACTVS_ROTATABLE_BOND>
3

> <PUBCHEM_CACTVS_SUBSKEYS>
AAADceB6IAAAAgAAAAAAAAAAAAAAAAAAAAAwYAAAAAAAAAABQAAAHgAwAAAADAiDmAAywILAAACIAiVSUACCAAAhAgAIiAEAZIgIIDLAlZGEIAhglADIyAcYiMCOQAAAAAACAACAAAAAAAQAAAAAAAAAAA==

> <PUBCHEM_IUPAC_OPENEYE_NAME>
N-(4-iodo-2-methyl-phenyl)-2-(p-tolyl)acetamide

> <PUBCHEM_IUPAC_CAS_NAME>
N-(4-iodo-2-methylphenyl)-2-(4-methylphenyl)acetamide

> <PUBCHEM_IUPAC_NAME>
N-(4-iodo-2-methylphenyl)-2-(4-methylphenyl)acetamide

> <PUBCHEM_IUPAC_SYSTEMATIC_NAME>
N-(4-iodanyl-2-methyl-phenyl)-2-(4-methylphenyl)ethanamide

> <PUBCHEM_IUPAC_TRADITIONAL_NAME>
N-(4-iodo-2-methyl-phenyl)-2-(p-tolyl)acetamide

> <PUBCHEM_IUPAC_INCHI>
InChI=1S/C16H16INO/c1-11-3-5-13(6-4-11)10-16(19)18-15-8-7-14(17)9-12(15)2/h3-9H,10H2,1-2H3,(H,18,19)

> <PUBCHEM_IUPAC_INCHIKEY>
SYRXDNMLAPUQHZ-UHFFFAOYSA-N

> <PUBCHEM_XLOGP3>
3.7

> <PUBCHEM_EXACT_MASS>
365.027662

> <PUBCHEM_MOLECULAR_FORMULA>
C16H16INO

> <PUBCHEM_MOLECULAR_WEIGHT>
365.20881

> <PUBCHEM_OPENEYE_CAN_SMILES>
CC1=CC=C(C=C1)CC(=O)NC2=C(C=C(C=C2)I)C

> <PUBCHEM_OPENEYE_ISO_SMILES>
CC1=CC=C(C=C1)CC(=O)NC2=C(C=C(C=C2)I)C

> <PUBCHEM_CACTVS_TPSA>
29.1

> <PUBCHEM_MONOISOTOPIC_WEIGHT>
365.027662

> <PUBCHEM_TOTAL_CHARGE>
0

> <PUBCHEM_HEAVY_ATOM_COUNT>
19

> <PUBCHEM_ATOM_DEF_STEREO_COUNT>
0

> <PUBCHEM_ATOM_UDEF_STEREO_COUNT>
0

> <PUBCHEM_BOND_DEF_STEREO_COUNT>
0

> <PUBCHEM_BOND_UDEF_STEREO_COUNT>
0

> <PUBCHEM_ISOTOPIC_ATOM_COUNT>
0

> <PUBCHEM_COMPONENT_COUNT>
1

> <PUBCHEM_CACTVS_TAUTO_COUNT>
3

> <PUBCHEM_COORDINATE_TYPE>
1
5
255

> <PUBCHEM_BONDANNOTATIONS>
10  13  8
11  12  8
11  13  8
14  17  8
15  18  8
17  18  8
5  10  8
5  9  8
6  14  8
6  7  8
7  15  8
9  12  8

$$$$
30395974
  -OEChem-11301217422D

 32 33  0     0  0  0  0  0  0999 V2000
    2.0000   -1.2500    0.0000 Cl  0  0  0  0  0  0  0  0  0  0  0  0
    5.4641   -1.2500    0.0000 Cl  0  0  0  0  0  0  0  0  0  0  0  0
    5.4641   -0.2500    0.0000 O   0  0  0  0  0  0  0  0  0  0  0  0
    3.7320   -0.2500    0.0000 N   0  0  0  0  0  0  0  0  0  0  0  0
    5.4641    1.7500    0.0000 C   0  0  0  0  0  0  0  0  0  0  0  0
    4.5981    1.2500    0.0000 C   0  0  0  0  0  0  0  0  0  0  0  0
    6.3301    1.2500    0.0000 C   0  0  0  0  0  0  0  0  0  0  0  0
    5.4641    2.7500    0.0000 C   0  0  0  0  0  0  0  0  0  0  0  0
    4.5981    0.2500    0.0000 C   0  0  0  0  0  0  0  0  0  0  0  0
    7.1962    2.7500    0.0000 C   0  0  0  0  0  0  0  0  0  0  0  0
    7.1962    1.7500    0.0000 C   0  0  0  0  0  0  0  0  0  0  0  0
    6.3301    3.2500    0.0000 C   0  0  0  0  0  0  0  0  0  0  0  0
    3.7320   -1.2500    0.0000 C   0  0  0  0  0  0  0  0  0  0  0  0
    8.0622    3.2500    0.0000 C   0  0  0  0  0  0  0  0  0  0  0  0
    2.8660   -1.7500    0.0000 C   0  0  0  0  0  0  0  0  0  0  0  0
    4.5981   -1.7500    0.0000 C   0  0  0  0  0  0  0  0  0  0  0  0
    2.8660   -2.7500    0.0000 C   0  0  0  0  0  0  0  0  0  0  0  0
    4.5981   -2.7500    0.0000 C   0  0  0  0  0  0  0  0  0  0  0  0
    3.7320   -3.2500    0.0000 C   0  0  0  0  0  0  0  0  0  0  0  0
    4.3860    1.8326    0.0000 H   0  0  0  0  0  0  0  0  0  0  0  0
    3.9875    1.1423    0.0000 H   0  0  0  0  0  0  0  0  0  0  0  0
    6.3301    0.6300    0.0000 H   0  0  0  0  0  0  0  0  0  0  0  0
    4.9272    3.0600    0.0000 H   0  0  0  0  0  0  0  0  0  0  0  0
    7.7331    1.4400    0.0000 H   0  0  0  0  0  0  0  0  0  0  0  0
    6.3301    3.8700    0.0000 H   0  0  0  0  0  0  0  0  0  0  0  0
    3.1951    0.0600    0.0000 H   0  0  0  0  0  0  0  0  0  0  0  0
    8.3722    2.7131    0.0000 H   0  0  0  0  0  0  0  0  0  0  0  0
    8.5991    3.5600    0.0000 H   0  0  0  0  0  0  0  0  0  0  0  0
    7.7522    3.7869    0.0000 H   0  0  0  0  0  0  0  0  0  0  0  0
    2.3291   -3.0600    0.0000 H   0  0  0  0  0  0  0  0  0  0  0  0
    5.1350   -3.0600    0.0000 H   0  0  0  0  0  0  0  0  0  0  0  0
    3.7320   -3.8700    0.0000 H   0  0  0  0  0  0  0  0  0  0  0  0
  1 15  1  0  0  0  0
  2 16  1  0  0  0  0
  3  9  2  0  0  0  0
  4  9  1  0  0  0  0
  4 13  1  0  0  0  0
  4 26  1  0  0  0  0
  5  6  1  0  0  0  0
  5  7  2  0  0  0  0
  5  8  1  0  0  0  0
  6  9  1  0  0  0  0
  6 20  1  0  0  0  0
  6 21  1  0  0  0  0
  7 11  1  0  0  0  0
  7 22  1  0  0  0  0
  8 12  2  0  0  0  0
  8 23  1  0  0  0  0
 10 11  2  0  0  0  0
 10 12  1  0  0  0  0
 10 14  1  0  0  0  0
 11 24  1  0  0  0  0
 12 25  1  0  0  0  0
 13 15  2  0  0  0  0
 13 16  1  0  0  0  0
 14 27  1  0  0  0  0
 14 28  1  0  0  0  0
 14 29  1  0  0  0  0
 15 17  1  0  0  0  0
 16 18  2  0  0  0  0
 17 19  2  0  0  0  0
 17 30  1  0  0  0  0
 18 19  1  0  0  0  0
 18 31  1  0  0  0  0
 19 32  1  0  0  0  0
M  END
> <PUBCHEM_COMPOUND_CID>
30395974

> <PUBCHEM_COMPOUND_CANONICALIZED>
1

> <PUBCHEM_CACTVS_COMPLEXITY>
293

> <PUBCHEM_CACTVS_HBOND_ACCEPTOR>
1

> <PUBCHEM_CACTVS_HBOND_DONOR>
1

> <PUBCHEM_CACTVS_ROTATABLE_BOND>
3

> <PUBCHEM_CACTVS_SUBSKEYS>
AAADccByIAAGAAAAAAAAAAAAAAAAAAAAAAAwYAAAAAAAAAABQAAAHgIQAAAADAqBmCAywILAAACIAiVSUACCAAAhBQAIiAEARogIIDLBl5HEIAhglADIyAcYiMCOQAAAAACAABCAAAAAAQAAIAAAAAAAAA==

> <PUBCHEM_IUPAC_OPENEYE_NAME>
N-(2,6-dichlorophenyl)-2-(p-tolyl)acetamide

> <PUBCHEM_IUPAC_CAS_NAME>
N-(2,6-dichlorophenyl)-2-(4-methylphenyl)acetamide

> <PUBCHEM_IUPAC_NAME>
N-(2,6-dichlorophenyl)-2-(4-methylphenyl)acetamide

> <PUBCHEM_IUPAC_SYSTEMATIC_NAME>
N-[2,6-bis(chloranyl)phenyl]-2-(4-methylphenyl)ethanamide

> <PUBCHEM_IUPAC_TRADITIONAL_NAME>
N-(2,6-dichlorophenyl)-2-(p-tolyl)acetamide

> <PUBCHEM_IUPAC_INCHI>
InChI=1S/C15H13Cl2NO/c1-10-5-7-11(8-6-10)9-14(19)18-15-12(16)3-2-4-13(15)17/h2-8H,9H2,1H3,(H,18,19)

> <PUBCHEM_IUPAC_INCHIKEY>
FUBJFTYBCADXEE-UHFFFAOYSA-N

> <PUBCHEM_XLOGP3>
3.3

> <PUBCHEM_EXACT_MASS>
293.037419

> <PUBCHEM_MOLECULAR_FORMULA>
C15H13Cl2NO

> <PUBCHEM_MOLECULAR_WEIGHT>
294.17582

> <PUBCHEM_OPENEYE_CAN_SMILES>
CC1=CC=C(C=C1)CC(=O)NC2=C(C=CC=C2Cl)Cl

> <PUBCHEM_OPENEYE_ISO_SMILES>
CC1=CC=C(C=C1)CC(=O)NC2=C(C=CC=C2Cl)Cl

> <PUBCHEM_CACTVS_TPSA>
29.1

> <PUBCHEM_MONOISOTOPIC_WEIGHT>
293.037419

> <PUBCHEM_TOTAL_CHARGE>
0

> <PUBCHEM_HEAVY_ATOM_COUNT>
19

> <PUBCHEM_ATOM_DEF_STEREO_COUNT>
0

> <PUBCHEM_ATOM_UDEF_STEREO_COUNT>
0

> <PUBCHEM_BOND_DEF_STEREO_COUNT>
0

> <PUBCHEM_BOND_UDEF_STEREO_COUNT>
0

> <PUBCHEM_ISOTOPIC_ATOM_COUNT>
0

> <PUBCHEM_COMPONENT_COUNT>
1

> <PUBCHEM_CACTVS_TAUTO_COUNT>
3

> <PUBCHEM_COORDINATE_TYPE>
1
5
255

> <PUBCHEM_BONDANNOTATIONS>
10  11  8
10  12  8
13  15  8
13  16  8
15  17  8
16  18  8
17  19  8
18  19  8
5  7  8
5  8  8
7  11  8
8  12  8

$$$$
30399808
  -OEChem-11301217422D

 36 37  0     0  0  0  0  0  0999 V2000
   14.2921   -2.1559    0.0000 Cl  0  0  0  0  0  0  0  0  0  0  0  0
    8.2299   -0.6559    0.0000 S   0  0  0  0  0  0  0  0  0  0  0  0
    6.4504   -0.5626    0.0000 S   0  0  0  0  0  0  0  0  0  0  0  0
    4.7867    0.0760    0.0000 S   0  0  0  0  0  0  0  0  0  0  0  0
   12.5600    1.8441    0.0000 F   0  0  0  0  0  0  0  0  0  0  0  0
   13.5600    0.8441    0.0000 F   0  0  0  0  0  0  0  0  0  0  0  0
   11.5600    0.8441    0.0000 F   0  0  0  0  0  0  0  0  0  0  0  0
    9.9620   -1.6559    0.0000 O   0  0  0  0  0  0  0  0  0  0  0  0
    2.7976   -0.1331    0.0000 O   0  0  0  0  0  0  0  0  0  0  0  0
   10.8280   -0.1559    0.0000 N   0  0  0  0  0  0  0  0  0  0  0  0
    7.2594    0.8386    0.0000 N   0  0  0  0  0  0  0  0  0  0  0  0
    6.2812    1.0465    0.0000 N   0  0  0  0  0  0  0  0  0  0  0  0
    2.6166    1.5895    0.0000 N   0  0  0  0  0  0  0  0  0  0  0  0
   11.6940   -0.6559    0.0000 C   0  0  0  0  0  0  0  0  0  0  0  0
   12.5600   -0.1559    0.0000 C   0  0  0  0  0  0  0  0  0  0  0  0
   11.6940   -1.6559    0.0000 C   0  0  0  0  0  0  0  0  0  0  0  0
   13.4261   -0.6559    0.0000 C   0  0  0  0  0  0  0  0  0  0  0  0
   12.5600    0.8441    0.0000 C   0  0  0  0  0  0  0  0  0  0  0  0
   12.5600   -2.1559    0.0000 C   0  0  0  0  0  0  0  0  0  0  0  0
   13.4261   -1.6559    0.0000 C   0  0  0  0  0  0  0  0  0  0  0  0
    9.9620   -0.6559    0.0000 C   0  0  0  0  0  0  0  0  0  0  0  0
    9.0959   -0.1559    0.0000 C   0  0  0  0  0  0  0  0  0  0  0  0
    7.3639   -0.1559    0.0000 C   0  0  0  0  0  0  0  0  0  0  0  0
    5.7812    0.1805    0.0000 C   0  0  0  0  0  0  0  0  0  0  0  0
    4.1989    0.8850    0.0000 C   0  0  0  0  0  0  0  0  0  0  0  0
    3.2044    0.7805    0.0000 C   0  0  0  0  0  0  0  0  0  0  0  0
   11.1571   -1.9659    0.0000 H   0  0  0  0  0  0  0  0  0  0  0  0
   10.8280    0.4641    0.0000 H   0  0  0  0  0  0  0  0  0  0  0  0
   13.9630   -0.3459    0.0000 H   0  0  0  0  0  0  0  0  0  0  0  0
   12.5600   -2.7759    0.0000 H   0  0  0  0  0  0  0  0  0  0  0  0
    9.4945    0.3191    0.0000 H   0  0  0  0  0  0  0  0  0  0  0  0
    8.6974    0.3191    0.0000 H   0  0  0  0  0  0  0  0  0  0  0  0
    4.7562    1.1568    0.0000 H   0  0  0  0  0  0  0  0  0  0  0  0
    4.0280    1.4810    0.0000 H   0  0  0  0  0  0  0  0  0  0  0  0
    2.0000    1.5247    0.0000 H   0  0  0  0  0  0  0  0  0  0  0  0
    2.8688    2.1559    0.0000 H   0  0  0  0  0  0  0  0  0  0  0  0
  1 20  1  0  0  0  0
  2 22  1  0  0  0  0
  2 23  1  0  0  0  0
  3 23  1  0  0  0  0
  3 24  1  0  0  0  0
  4 24  1  0  0  0  0
  4 25  1  0  0  0  0
  5 18  1  0  0  0  0
  6 18  1  0  0  0  0
  7 18  1  0  0  0  0
  8 21  2  0  0  0  0
  9 26  2  0  0  0  0
 10 14  1  0  0  0  0
 10 21  1  0  0  0  0
 10 28  1  0  0  0  0
 11 12  1  0  0  0  0
 11 23  2  0  0  0  0
 12 24  2  0  0  0  0
 13 26  1  0  0  0  0
 13 35  1  0  0  0  0
 13 36  1  0  0  0  0
 14 15  2  0  0  0  0
 14 16  1  0  0  0  0
 15 17  1  0  0  0  0
 15 18  1  0  0  0  0
 16 19  2  0  0  0  0
 16 27  1  0  0  0  0
 17 20  2  0  0  0  0
 17 29  1  0  0  0  0
 19 20  1  0  0  0  0
 19 30  1  0  0  0  0
 21 22  1  0  0  0  0
 22 31  1  0  0  0  0
 22 32  1  0  0  0  0
 25 26  1  0  0  0  0
 25 33  1  0  0  0  0
 25 34  1  0  0  0  0
M  END
> <PUBCHEM_COMPOUND_CID>
30399808

> <PUBCHEM_COMPOUND_CANONICALIZED>
1

> <PUBCHEM_CACTVS_COMPLEXITY>
518

> <PUBCHEM_CACTVS_HBOND_ACCEPTOR>
10

> <PUBCHEM_CACTVS_HBOND_DONOR>
2

> <PUBCHEM_CACTVS_ROTATABLE_BOND>
7

> <PUBCHEM_CACTVS_SUBSKEYS>
AAADccBzsYBkAAAAAAAAAAAAAAAAAWAAAAAwAAAAAAAAAAABwAAAHwYYAAAADAqF2DCwwILAAAiuAiVSUACSAQBhBxAIiAAAZogIICLBk5GEIAhglADIyAcQgAAOAABAIAACAAAAAIBAAAQAAAAAAAAAAA==

> <PUBCHEM_IUPAC_OPENEYE_NAME>
2-[[5-[2-[4-chloro-2-(trifluoromethyl)anilino]-2-oxo-ethyl]sulfanyl-1,3,4-thiadiazol-2-yl]sulfanyl]acetamide

> <PUBCHEM_IUPAC_CAS_NAME>
2-[[5-[[2-[4-chloro-2-(trifluoromethyl)anilino]-2-oxoethyl]thio]-1,3,4-thiadiazol-2-yl]thio]acetamide

> <PUBCHEM_IUPAC_NAME>
2-[[5-[2-[4-chloro-2-(trifluoromethyl)anilino]-2-oxoethyl]sulfanyl-1,3,4-thiadiazol-2-yl]sulfanyl]acetamide

> <PUBCHEM_IUPAC_SYSTEMATIC_NAME>
2-[[5-[2-[[4-chloranyl-2-(trifluoromethyl)phenyl]amino]-2-oxidanylidene-ethyl]sulfanyl-1,3,4-thiadiazol-2-yl]sulfanyl]ethanamide

> <PUBCHEM_IUPAC_TRADITIONAL_NAME>
2-[[5-[[2-[4-chloro-2-(trifluoromethyl)anilino]-2-keto-ethyl]thio]-1,3,4-thiadiazol-2-yl]thio]acetamide

> <PUBCHEM_IUPAC_INCHI>
InChI=1S/C13H10ClF3N4O2S3/c14-6-1-2-8(7(3-6)13(15,16)17)19-10(23)5-25-12-21-20-11(26-12)24-4-9(18)22/h1-3H,4-5H2,(H2,18,22)(H,19,23)

> <PUBCHEM_IUPAC_INCHIKEY>
XVIRWQDNDJXOCJ-UHFFFAOYSA-N

> <PUBCHEM_XLOGP3>
2.8

> <PUBCHEM_EXACT_MASS>
441.960651

> <PUBCHEM_MOLECULAR_FORMULA>
C13H10ClF3N4O2S3

> <PUBCHEM_MOLECULAR_WEIGHT>
442.88731

> <PUBCHEM_OPENEYE_CAN_SMILES>
C1=CC(=C(C=C1Cl)C(F)(F)F)NC(=O)CSC2=NN=C(S2)SCC(=O)N

> <PUBCHEM_OPENEYE_ISO_SMILES>
C1=CC(=C(C=C1Cl)C(F)(F)F)NC(=O)CSC2=NN=C(S2)SCC(=O)N

> <PUBCHEM_CACTVS_TPSA>
177

> <PUBCHEM_MONOISOTOPIC_WEIGHT>
441.960651

> <PUBCHEM_TOTAL_CHARGE>
0

> <PUBCHEM_HEAVY_ATOM_COUNT>
26

> <PUBCHEM_ATOM_DEF_STEREO_COUNT>
0

> <PUBCHEM_ATOM_UDEF_STEREO_COUNT>
0

> <PUBCHEM_BOND_DEF_STEREO_COUNT>
0

> <PUBCHEM_BOND_UDEF_STEREO_COUNT>
0

> <PUBCHEM_ISOTOPIC_ATOM_COUNT>
0

> <PUBCHEM_COMPONENT_COUNT>
1

> <PUBCHEM_CACTVS_TAUTO_COUNT>
9

> <PUBCHEM_COORDINATE_TYPE>
1
5
255

> <PUBCHEM_BONDANNOTATIONS>
11  12  8
11  23  8
12  24  8
14  15  8
14  16  8
15  17  8
16  19  8
17  20  8
19  20  8
3  23  8
3  24  8

$$$$
