61323699
  -OEChem-11301218202D

 42 43  0     0  0  0  0  0  0999 V2000
    7.2566    0.9915    0.0000 N   0  0  0  0  0  0  0  0  0  0  0  0
    4.6783   -1.3220    0.0000 N   0  0  0  0  0  0  0  0  0  0  0  0
    8.5458    2.1482    0.0000 C   0  0  0  0  0  0  0  0  0  0  0  0
    7.5673    1.9420    0.0000 C   0  0  0  0  0  0  0  0  0  0  0  0
    6.2781    0.7853    0.0000 C   0  0  0  0  0  0  0  0  0  0  0  0
    5.9674   -0.1653    0.0000 C   0  0  0  0  0  0  0  0  0  0  0  0
    9.5243    2.3544    0.0000 C   0  0  0  0  0  0  0  0  0  0  0  0
    8.3396    3.1267    0.0000 C   0  0  0  0  0  0  0  0  0  0  0  0
    8.7520    1.1697    0.0000 C   0  0  0  0  0  0  0  0  0  0  0  0
    4.9889   -0.3715    0.0000 C   0  0  0  0  0  0  0  0  0  0  0  0
    3.7320   -1.6267    0.0000 C   0  0  0  0  0  0  0  0  0  0  0  0
    3.7320   -2.6267    0.0000 C   0  0  0  0  0  0  0  0  0  0  0  0
    5.2619   -2.1267    0.0000 C   0  0  0  0  0  0  0  0  0  0  0  0
    4.6783   -2.9315    0.0000 C   0  0  0  0  0  0  0  0  0  0  0  0
    2.8660   -1.1267    0.0000 C   0  0  0  0  0  0  0  0  0  0  0  0
    2.8660   -3.1267    0.0000 C   0  0  0  0  0  0  0  0  0  0  0  0
    2.0000   -1.6267    0.0000 C   0  0  0  0  0  0  0  0  0  0  0  0
    2.0000   -2.6267    0.0000 C   0  0  0  0  0  0  0  0  0  0  0  0
    7.5467    2.5617    0.0000 H   0  0  0  0  0  0  0  0  0  0  0  0
    6.9534    2.0294    0.0000 H   0  0  0  0  0  0  0  0  0  0  0  0
    6.2575    1.4049    0.0000 H   0  0  0  0  0  0  0  0  0  0  0  0
    5.6643    0.8726    0.0000 H   0  0  0  0  0  0  0  0  0  0  0  0
    5.9880   -0.7849    0.0000 H   0  0  0  0  0  0  0  0  0  0  0  0
    6.5812   -0.2526    0.0000 H   0  0  0  0  0  0  0  0  0  0  0  0
    7.6707    0.5300    0.0000 H   0  0  0  0  0  0  0  0  0  0  0  0
    8.1453    1.0419    0.0000 H   0  0  0  0  0  0  0  0  0  0  0  0
    9.6521    1.7478    0.0000 H   0  0  0  0  0  0  0  0  0  0  0  0
   10.1310    2.4823    0.0000 H   0  0  0  0  0  0  0  0  0  0  0  0
    9.3964    2.9611    0.0000 H   0  0  0  0  0  0  0  0  0  0  0  0
    8.9462    3.2546    0.0000 H   0  0  0  0  0  0  0  0  0  0  0  0
    8.2117    3.7334    0.0000 H   0  0  0  0  0  0  0  0  0  0  0  0
    7.7329    2.9989    0.0000 H   0  0  0  0  0  0  0  0  0  0  0  0
    8.8798    0.5630    0.0000 H   0  0  0  0  0  0  0  0  0  0  0  0
    9.3587    1.2976    0.0000 H   0  0  0  0  0  0  0  0  0  0  0  0
    4.9684    0.2482    0.0000 H   0  0  0  0  0  0  0  0  0  0  0  0
    4.3751   -0.2841    0.0000 H   0  0  0  0  0  0  0  0  0  0  0  0
    5.8819   -2.1267    0.0000 H   0  0  0  0  0  0  0  0  0  0  0  0
    4.8709   -3.5208    0.0000 H   0  0  0  0  0  0  0  0  0  0  0  0
    2.8660   -0.5067    0.0000 H   0  0  0  0  0  0  0  0  0  0  0  0
    2.8660   -3.7467    0.0000 H   0  0  0  0  0  0  0  0  0  0  0  0
    1.4631   -1.3167    0.0000 H   0  0  0  0  0  0  0  0  0  0  0  0
    1.4631   -2.9367    0.0000 H   0  0  0  0  0  0  0  0  0  0  0  0
  1  4  1  0  0  0  0
  1  5  1  0  0  0  0
  1 25  1  0  0  0  0
  2 10  1  0  0  0  0
  2 11  1  0  0  0  0
  2 13  1  0  0  0  0
  3  4  1  0  0  0  0
  3  7  1  0  0  0  0
  3  8  1  0  0  0  0
  3  9  1  0  0  0  0
  4 19  1  0  0  0  0
  4 20  1  0  0  0  0
  5  6  1  0  0  0  0
  5 21  1  0  0  0  0
  5 22  1  0  0  0  0
  6 10  1  0  0  0  0
  6 23  1  0  0  0  0
  6 24  1  0  0  0  0
  7 27  1  0  0  0  0
  7 28  1  0  0  0  0
  7 29  1  0  0  0  0
  8 30  1  0  0  0  0
  8 31  1  0  0  0  0
  8 32  1  0  0  0  0
  9 26  1  0  0  0  0
  9 33  1  0  0  0  0
  9 34  1  0  0  0  0
 10 35  1  0  0  0  0
 10 36  1  0  0  0  0
 11 12  1  0  0  0  0
 11 15  2  0  0  0  0
 12 14  1  0  0  0  0
 12 16  2  0  0  0  0
 13 14  2  0  0  0  0
 13 37  1  0  0  0  0
 14 38  1  0  0  0  0
 15 17  1  0  0  0  0
 15 39  1  0  0  0  0
 16 18  1  0  0  0  0
 16 40  1  0  0  0  0
 17 18  2  0  0  0  0
 17 41  1  0  0  0  0
 18 42  1  0  0  0  0
M  END
> <PUBCHEM_COMPOUND_CID>
61323699

> <PUBCHEM_COMPOUND_CANONICALIZED>
1

> <PUBCHEM_CACTVS_COMPLEXITY>
244

> <PUBCHEM_CACTVS_HBOND_ACCEPTOR>
1

> <PUBCHEM_CACTVS_HBOND_DONOR>
1

> <PUBCHEM_CACTVS_ROTATABLE_BOND>
6

> <PUBCHEM_CACTVS_SUBSKEYS>
AAADceB7AAAAAAAAAAAAAAAAAAAAAWAAAAAwAAAAAAAAAFgB8AAAHAAQAAAADgjBHgQ+wPPMEACgAzRnRACCgCAxAiAI2KA4ZJgIIOLA0ZGEIAhgkADIyAcQgIAOAAAAAAACAAAAAAAAAAQAAAAAAAAAAA==

> <PUBCHEM_IUPAC_OPENEYE_NAME>
N-(3-indol-1-ylpropyl)-2,2-dimethyl-propan-1-amine

> <PUBCHEM_IUPAC_CAS_NAME>
N-[3-(1-indolyl)propyl]-2,2-dimethyl-1-propanamine

> <PUBCHEM_IUPAC_NAME>
N-(3-indol-1-ylpropyl)-2,2-dimethylpropan-1-amine

> <PUBCHEM_IUPAC_SYSTEMATIC_NAME>
N-(3-indol-1-ylpropyl)-2,2-dimethyl-propan-1-amine

> <PUBCHEM_IUPAC_TRADITIONAL_NAME>
3-indol-1-ylpropyl(neopentyl)amine

> <PUBCHEM_IUPAC_INCHI>
InChI=1S/C16H24N2/c1-16(2,3)13-17-10-6-11-18-12-9-14-7-4-5-8-15(14)18/h4-5,7-9,12,17H,6,10-11,13H2,1-3H3

> <PUBCHEM_IUPAC_INCHIKEY>
XZOKSBBCIYKVEU-UHFFFAOYSA-N

> <PUBCHEM_XLOGP3>
4.3

> <PUBCHEM_EXACT_MASS>
244.193949

> <PUBCHEM_MOLECULAR_FORMULA>
C16H24N2

> <PUBCHEM_MOLECULAR_WEIGHT>
244.37516

> <PUBCHEM_OPENEYE_CAN_SMILES>
CC(C)(C)CNCCCN1C=CC2=CC=CC=C21

> <PUBCHEM_OPENEYE_ISO_SMILES>
CC(C)(C)CNCCCN1C=CC2=CC=CC=C21

> <PUBCHEM_CACTVS_TPSA>
17

> <PUBCHEM_MONOISOTOPIC_WEIGHT>
244.193949

> <PUBCHEM_TOTAL_CHARGE>
0

> <PUBCHEM_HEAVY_ATOM_COUNT>
18

> <PUBCHEM_ATOM_DEF_STEREO_COUNT>
0

> <PUBCHEM_ATOM_UDEF_STEREO_COUNT>
0

> <PUBCHEM_BOND_DEF_STEREO_COUNT>
0

> <PUBCHEM_BOND_UDEF_STEREO_COUNT>
0

> <PUBCHEM_ISOTOPIC_ATOM_COUNT>
0

> <PUBCHEM_COMPONENT_COUNT>
1

> <PUBCHEM_CACTVS_TAUTO_COUNT>
1

> <PUBCHEM_COORDINATE_TYPE>
1
5
255

> <PUBCHEM_BONDANNOTATIONS>
11  12  8
11  15  8
12  14  8
12  16  8
13  14  8
15  17  8
16  18  8
17  18  8
2  11  8
2  13  8

$$$$
61323902
  -OEChem-11301218202D

 39 40  0     0  0  0  0  0  0999 V2000
    6.2781    1.0994    0.0000 N   0  0  0  0  0  0  0  0  0  0  0  0
    4.6783   -2.6173    0.0000 N   0  0  0  0  0  0  0  0  0  0  0  0
    7.5673    2.2561    0.0000 C   0  0  0  0  0  0  0  0  0  0  0  0
    7.2566    1.3056    0.0000 C   0  0  0  0  0  0  0  0  0  0  0  0
    7.8779    3.2066    0.0000 C   0  0  0  0  0  0  0  0  0  0  0  0
    8.5178    1.9455    0.0000 C   0  0  0  0  0  0  0  0  0  0  0  0
    6.6168    2.5668    0.0000 C   0  0  0  0  0  0  0  0  0  0  0  0
    5.9674    0.1489    0.0000 C   0  0  0  0  0  0  0  0  0  0  0  0
    4.9889   -0.0573    0.0000 C   0  0  0  0  0  0  0  0  0  0  0  0
    4.6783   -1.0079    0.0000 C   0  0  0  0  0  0  0  0  0  0  0  0
    3.7320   -1.3126    0.0000 C   0  0  0  0  0  0  0  0  0  0  0  0
    3.7320   -2.3126    0.0000 C   0  0  0  0  0  0  0  0  0  0  0  0
    5.2619   -1.8126    0.0000 C   0  0  0  0  0  0  0  0  0  0  0  0
    2.8660   -0.8126    0.0000 C   0  0  0  0  0  0  0  0  0  0  0  0
    2.8660   -2.8126    0.0000 C   0  0  0  0  0  0  0  0  0  0  0  0
    2.0000   -1.3126    0.0000 C   0  0  0  0  0  0  0  0  0  0  0  0
    2.0000   -2.3126    0.0000 C   0  0  0  0  0  0  0  0  0  0  0  0
    7.2772    0.6860    0.0000 H   0  0  0  0  0  0  0  0  0  0  0  0
    7.8704    1.2183    0.0000 H   0  0  0  0  0  0  0  0  0  0  0  0
    6.8094    3.1561    0.0000 H   0  0  0  0  0  0  0  0  0  0  0  0
    8.4672    3.0140    0.0000 H   0  0  0  0  0  0  0  0  0  0  0  0
    8.0705    3.7960    0.0000 H   0  0  0  0  0  0  0  0  0  0  0  0
    7.2886    3.3993    0.0000 H   0  0  0  0  0  0  0  0  0  0  0  0
    8.3252    1.3562    0.0000 H   0  0  0  0  0  0  0  0  0  0  0  0
    9.1071    1.7529    0.0000 H   0  0  0  0  0  0  0  0  0  0  0  0
    8.7104    2.5348    0.0000 H   0  0  0  0  0  0  0  0  0  0  0  0
    6.0274    2.7594    0.0000 H   0  0  0  0  0  0  0  0  0  0  0  0
    6.4241    1.9775    0.0000 H   0  0  0  0  0  0  0  0  0  0  0  0
    5.9880   -0.4708    0.0000 H   0  0  0  0  0  0  0  0  0  0  0  0
    6.5812    0.0615    0.0000 H   0  0  0  0  0  0  0  0  0  0  0  0
    5.8640    1.5609    0.0000 H   0  0  0  0  0  0  0  0  0  0  0  0
    4.9684    0.5623    0.0000 H   0  0  0  0  0  0  0  0  0  0  0  0
    4.3751    0.0300    0.0000 H   0  0  0  0  0  0  0  0  0  0  0  0
    5.8819   -1.8126    0.0000 H   0  0  0  0  0  0  0  0  0  0  0  0
    4.8709   -3.2066    0.0000 H   0  0  0  0  0  0  0  0  0  0  0  0
    2.8660   -0.1926    0.0000 H   0  0  0  0  0  0  0  0  0  0  0  0
    2.8660   -3.4326    0.0000 H   0  0  0  0  0  0  0  0  0  0  0  0
    1.4631   -1.0026    0.0000 H   0  0  0  0  0  0  0  0  0  0  0  0
    1.4631   -2.6226    0.0000 H   0  0  0  0  0  0  0  0  0  0  0  0
  1  4  1  0  0  0  0
  1  8  1  0  0  0  0
  1 31  1  0  0  0  0
  2 12  1  0  0  0  0
  2 13  1  0  0  0  0
  2 35  1  0  0  0  0
  3  4  1  0  0  0  0
  3  5  1  0  0  0  0
  3  6  1  0  0  0  0
  3  7  1  0  0  0  0
  4 18  1  0  0  0  0
  4 19  1  0  0  0  0
  5 21  1  0  0  0  0
  5 22  1  0  0  0  0
  5 23  1  0  0  0  0
  6 24  1  0  0  0  0
  6 25  1  0  0  0  0
  6 26  1  0  0  0  0
  7 20  1  0  0  0  0
  7 27  1  0  0  0  0
  7 28  1  0  0  0  0
  8  9  1  0  0  0  0
  8 29  1  0  0  0  0
  8 30  1  0  0  0  0
  9 10  1  0  0  0  0
  9 32  1  0  0  0  0
  9 33  1  0  0  0  0
 10 11  1  0  0  0  0
 10 13  2  0  0  0  0
 11 12  1  0  0  0  0
 11 14  2  0  0  0  0
 12 15  2  0  0  0  0
 13 34  1  0  0  0  0
 14 16  1  0  0  0  0
 14 36  1  0  0  0  0
 15 17  1  0  0  0  0
 15 37  1  0  0  0  0
 16 17  2  0  0  0  0
 16 38  1  0  0  0  0
 17 39  1  0  0  0  0
M  END
> <PUBCHEM_COMPOUND_CID>
61323902

> <PUBCHEM_COMPOUND_CANONICALIZED>
1

> <PUBCHEM_CACTVS_COMPLEXITY>
232

> <PUBCHEM_CACTVS_HBOND_ACCEPTOR>
1

> <PUBCHEM_CACTVS_HBOND_DONOR>
2

> <PUBCHEM_CACTVS_ROTATABLE_BOND>
5

> <PUBCHEM_CACTVS_SUBSKEYS>
AAADceBzAAAAAAAAAAAAAAAAAAAAAWAAAAAwAAAAAAAAAFgB8AAAHAAQAAAADgjBHgQ+wPLJkACgAzRnRACCgCAxAiAI2aA4ZJgIIOLAkZGEIAhgkADIyAcQgMAOgAAAAAACAAAAAAAAAAQAAAAAAAAAAA==

> <PUBCHEM_IUPAC_OPENEYE_NAME>
N-[2-(1H-indol-3-yl)ethyl]-2,2-dimethyl-propan-1-amine

> <PUBCHEM_IUPAC_CAS_NAME>
N-[2-(1H-indol-3-yl)ethyl]-2,2-dimethyl-1-propanamine

> <PUBCHEM_IUPAC_NAME>
N-[2-(1H-indol-3-yl)ethyl]-2,2-dimethylpropan-1-amine

> <PUBCHEM_IUPAC_SYSTEMATIC_NAME>
N-[2-(1H-indol-3-yl)ethyl]-2,2-dimethyl-propan-1-amine

> <PUBCHEM_IUPAC_TRADITIONAL_NAME>
2-(1H-indol-3-yl)ethyl-neopentyl-amine

> <PUBCHEM_IUPAC_INCHI>
InChI=1S/C15H22N2/c1-15(2,3)11-16-9-8-12-10-17-14-7-5-4-6-13(12)14/h4-7,10,16-17H,8-9,11H2,1-3H3

> <PUBCHEM_IUPAC_INCHIKEY>
GJRPHYYOCDQXJF-UHFFFAOYSA-N

> <PUBCHEM_XLOGP3>
3.8

> <PUBCHEM_EXACT_MASS>
230.178299

> <PUBCHEM_MOLECULAR_FORMULA>
C15H22N2

> <PUBCHEM_MOLECULAR_WEIGHT>
230.34858

> <PUBCHEM_OPENEYE_CAN_SMILES>
CC(C)(C)CNCCC1=CNC2=CC=CC=C21

> <PUBCHEM_OPENEYE_ISO_SMILES>
CC(C)(C)CNCCC1=CNC2=CC=CC=C21

> <PUBCHEM_CACTVS_TPSA>
27.8

> <PUBCHEM_MONOISOTOPIC_WEIGHT>
230.178299

> <PUBCHEM_TOTAL_CHARGE>
0

> <PUBCHEM_HEAVY_ATOM_COUNT>
17

> <PUBCHEM_ATOM_DEF_STEREO_COUNT>
0

> <PUBCHEM_ATOM_UDEF_STEREO_COUNT>
0

> <PUBCHEM_BOND_DEF_STEREO_COUNT>
0

> <PUBCHEM_BOND_UDEF_STEREO_COUNT>
0

> <PUBCHEM_ISOTOPIC_ATOM_COUNT>
0

> <PUBCHEM_COMPONENT_COUNT>
1

> <PUBCHEM_CACTVS_TAUTO_COUNT>
1

> <PUBCHEM_COORDINATE_TYPE>
1
5
255

> <PUBCHEM_BONDANNOTATIONS>
10  11  8
10  13  8
11  12  8
11  14  8
12  15  8
14  16  8
15  17  8
16  17  8
2  12  8
2  13  8

$$$$
