16610319
  -OEChem-11301217202D

 37 39  0     0  0  0  0  0  0999 V2000
    7.9128    1.3512    0.0000 Br  0  0  0  0  0  0  0  0  0  0  0  0
    4.4487    0.3512    0.0000 O   0  0  0  0  0  0  0  0  0  0  0  0
    3.5827   -3.1488    0.0000 N   0  0  0  0  0  0  0  0  0  0  0  0
    6.1808    0.3512    0.0000 N   0  0  0  0  0  0  0  0  0  0  0  0
    4.4487   -2.6488    0.0000 C   0  0  0  0  0  0  0  0  0  0  0  0
    5.3147   -1.1488    0.0000 C   0  0  0  0  0  0  0  0  0  0  0  0
    4.4487   -1.6488    0.0000 C   0  0  0  0  0  0  0  0  0  0  0  0
    5.3147   -3.1488    0.0000 C   0  0  0  0  0  0  0  0  0  0  0  0
    6.1808    1.3512    0.0000 C   0  0  0  0  0  0  0  0  0  0  0  0
    5.3147   -0.1488    0.0000 C   0  0  0  0  0  0  0  0  0  0  0  0
    6.1808   -1.6488    0.0000 C   0  0  0  0  0  0  0  0  0  0  0  0
    2.6691   -2.7420    0.0000 C   0  0  0  0  0  0  0  0  0  0  0  0
    3.4782   -4.1433    0.0000 C   0  0  0  0  0  0  0  0  0  0  0  0
    6.1808   -2.6488    0.0000 C   0  0  0  0  0  0  0  0  0  0  0  0
    6.1808    3.3512    0.0000 C   0  0  0  0  0  0  0  0  0  0  0  0
    7.0468    1.8512    0.0000 C   0  0  0  0  0  0  0  0  0  0  0  0
    5.3147    1.8512    0.0000 C   0  0  0  0  0  0  0  0  0  0  0  0
    7.0468    2.8512    0.0000 C   0  0  0  0  0  0  0  0  0  0  0  0
    5.3147    2.8512    0.0000 C   0  0  0  0  0  0  0  0  0  0  0  0
    2.0000   -3.4852    0.0000 C   0  0  0  0  0  0  0  0  0  0  0  0
    2.5000   -4.3512    0.0000 C   0  0  0  0  0  0  0  0  0  0  0  0
    6.1808    4.3512    0.0000 C   0  0  0  0  0  0  0  0  0  0  0  0
    3.9118   -1.3388    0.0000 H   0  0  0  0  0  0  0  0  0  0  0  0
    5.3147   -3.7688    0.0000 H   0  0  0  0  0  0  0  0  0  0  0  0
    6.7177   -1.3388    0.0000 H   0  0  0  0  0  0  0  0  0  0  0  0
    2.5402   -2.1356    0.0000 H   0  0  0  0  0  0  0  0  0  0  0  0
    3.9389   -4.5582    0.0000 H   0  0  0  0  0  0  0  0  0  0  0  0
    6.7177    0.0412    0.0000 H   0  0  0  0  0  0  0  0  0  0  0  0
    6.7177   -2.9588    0.0000 H   0  0  0  0  0  0  0  0  0  0  0  0
    4.7778    1.5412    0.0000 H   0  0  0  0  0  0  0  0  0  0  0  0
    7.5837    3.1612    0.0000 H   0  0  0  0  0  0  0  0  0  0  0  0
    4.7778    3.1612    0.0000 H   0  0  0  0  0  0  0  0  0  0  0  0
    1.3834   -3.4204    0.0000 H   0  0  0  0  0  0  0  0  0  0  0  0
    2.2478   -4.9176    0.0000 H   0  0  0  0  0  0  0  0  0  0  0  0
    6.8008    4.3512    0.0000 H   0  0  0  0  0  0  0  0  0  0  0  0
    6.1808    4.9712    0.0000 H   0  0  0  0  0  0  0  0  0  0  0  0
    5.5608    4.3512    0.0000 H   0  0  0  0  0  0  0  0  0  0  0  0
  1 16  1  0  0  0  0
  2 10  2  0  0  0  0
  3  5  1  0  0  0  0
  3 12  1  0  0  0  0
  3 13  1  0  0  0  0
  4  9  1  0  0  0  0
  4 10  1  0  0  0  0
  4 28  1  0  0  0  0
  5  7  1  0  0  0  0
  5  8  2  0  0  0  0
  6  7  2  0  0  0  0
  6 10  1  0  0  0  0
  6 11  1  0  0  0  0
  7 23  1  0  0  0  0
  8 14  1  0  0  0  0
  8 24  1  0  0  0  0
  9 16  2  0  0  0  0
  9 17  1  0  0  0  0
 11 14  2  0  0  0  0
 11 25  1  0  0  0  0
 12 20  2  0  0  0  0
 12 26  1  0  0  0  0
 13 21  2  0  0  0  0
 13 27  1  0  0  0  0
 14 29  1  0  0  0  0
 15 18  2  0  0  0  0
 15 19  1  0  0  0  0
 15 22  1  0  0  0  0
 16 18  1  0  0  0  0
 17 19  2  0  0  0  0
 17 30  1  0  0  0  0
 18 31  1  0  0  0  0
 19 32  1  0  0  0  0
 20 21  1  0  0  0  0
 20 33  1  0  0  0  0
 21 34  1  0  0  0  0
 22 35  1  0  0  0  0
 22 36  1  0  0  0  0
 22 37  1  0  0  0  0
M  END
> <PUBCHEM_COMPOUND_CID>
16610319

> <PUBCHEM_COMPOUND_CANONICALIZED>
1

> <PUBCHEM_CACTVS_COMPLEXITY>
383

> <PUBCHEM_CACTVS_HBOND_ACCEPTOR>
1

> <PUBCHEM_CACTVS_HBOND_DONOR>
1

> <PUBCHEM_CACTVS_ROTATABLE_BOND>
3

> <PUBCHEM_CACTVS_SUBSKEYS>
AAADccB7IAAAEAAAAAAAAAAAAAAAAWAAAAAwYAAAAAAAAAAB0AAAHgBQAAABrAjBmgQ+wJPMEACoAjV3VACCgCA1AiQI2CE4ZPgIIPLAlZGEIQhglADIy5cciACOCAAAUAAAAAgQAACgAAAAEAAAAAAAAA==

> <PUBCHEM_IUPAC_OPENEYE_NAME>
N-(2-bromo-4-methyl-phenyl)-3-pyrrol-1-yl-benzamide

> <PUBCHEM_IUPAC_CAS_NAME>
N-(2-bromo-4-methylphenyl)-3-(1-pyrrolyl)benzamide

> <PUBCHEM_IUPAC_NAME>
N-(2-bromo-4-methylphenyl)-3-pyrrol-1-ylbenzamide

> <PUBCHEM_IUPAC_SYSTEMATIC_NAME>
N-(2-bromanyl-4-methyl-phenyl)-3-pyrrol-1-yl-benzamide

> <PUBCHEM_IUPAC_TRADITIONAL_NAME>
N-(2-bromo-4-methyl-phenyl)-3-pyrrol-1-yl-benzamide

> <PUBCHEM_IUPAC_INCHI>
InChI=1S/C18H15BrN2O/c1-13-7-8-17(16(19)11-13)20-18(22)14-5-4-6-15(12-14)21-9-2-3-10-21/h2-12H,1H3,(H,20,22)

> <PUBCHEM_IUPAC_INCHIKEY>
ATUDSPRRAUSAAP-UHFFFAOYSA-N

> <PUBCHEM_XLOGP3>
4.5

> <PUBCHEM_EXACT_MASS>
354.036775

> <PUBCHEM_MOLECULAR_FORMULA>
C18H15BrN2O

> <PUBCHEM_MOLECULAR_WEIGHT>
355.2285

> <PUBCHEM_OPENEYE_CAN_SMILES>
CC1=CC(=C(C=C1)NC(=O)C2=CC(=CC=C2)N3C=CC=C3)Br

> <PUBCHEM_OPENEYE_ISO_SMILES>
CC1=CC(=C(C=C1)NC(=O)C2=CC(=CC=C2)N3C=CC=C3)Br

> <PUBCHEM_CACTVS_TPSA>
34

> <PUBCHEM_MONOISOTOPIC_WEIGHT>
354.036775

> <PUBCHEM_TOTAL_CHARGE>
0

> <PUBCHEM_HEAVY_ATOM_COUNT>
22

> <PUBCHEM_ATOM_DEF_STEREO_COUNT>
0

> <PUBCHEM_ATOM_UDEF_STEREO_COUNT>
0

> <PUBCHEM_BOND_DEF_STEREO_COUNT>
0

> <PUBCHEM_BOND_UDEF_STEREO_COUNT>
0

> <PUBCHEM_ISOTOPIC_ATOM_COUNT>
0

> <PUBCHEM_COMPONENT_COUNT>
1

> <PUBCHEM_CACTVS_TAUTO_COUNT>
2

> <PUBCHEM_COORDINATE_TYPE>
1
5
255

> <PUBCHEM_BONDANNOTATIONS>
11  14  8
12  20  8
13  21  8
15  18  8
15  19  8
16  18  8
17  19  8
20  21  8
3  12  8
3  13  8
5  7  8
5  8  8
6  11  8
6  7  8
8  14  8
9  16  8
9  17  8

$$$$
16618636
  -OEChem-11301217202D

 29 30  0     0  0  0  0  0  0999 V2000
    3.7320   -4.2500    0.0000 Br  0  0  0  0  0  0  0  0  0  0  0  0
    2.0000   -1.2500    0.0000 Cl  0  0  0  0  0  0  0  0  0  0  0  0
    5.4641   -0.2500    0.0000 O   0  0  0  0  0  0  0  0  0  0  0  0
    3.7320   -0.2500    0.0000 N   0  0  0  0  0  0  0  0  0  0  0  0
    4.5981    1.2500    0.0000 C   0  0  0  0  0  0  0  0  0  0  0  0
    4.5981    3.2500    0.0000 C   0  0  0  0  0  0  0  0  0  0  0  0
    3.7320   -1.2500    0.0000 C   0  0  0  0  0  0  0  0  0  0  0  0
    4.5981    0.2500    0.0000 C   0  0  0  0  0  0  0  0  0  0  0  0
    5.4641    1.7500    0.0000 C   0  0  0  0  0  0  0  0  0  0  0  0
    3.7320    1.7500    0.0000 C   0  0  0  0  0  0  0  0  0  0  0  0
    5.4641    2.7500    0.0000 C   0  0  0  0  0  0  0  0  0  0  0  0
    3.7320    2.7500    0.0000 C   0  0  0  0  0  0  0  0  0  0  0  0
    2.8660   -1.7500    0.0000 C   0  0  0  0  0  0  0  0  0  0  0  0
    4.5981   -1.7500    0.0000 C   0  0  0  0  0  0  0  0  0  0  0  0
    4.5981    4.2500    0.0000 C   0  0  0  0  0  0  0  0  0  0  0  0
    2.8660   -2.7500    0.0000 C   0  0  0  0  0  0  0  0  0  0  0  0
    4.5981   -2.7500    0.0000 C   0  0  0  0  0  0  0  0  0  0  0  0
    3.7320   -3.2500    0.0000 C   0  0  0  0  0  0  0  0  0  0  0  0
    6.0010    1.4400    0.0000 H   0  0  0  0  0  0  0  0  0  0  0  0
    3.1951    1.4400    0.0000 H   0  0  0  0  0  0  0  0  0  0  0  0
    3.1951    0.0600    0.0000 H   0  0  0  0  0  0  0  0  0  0  0  0
    6.0010    3.0600    0.0000 H   0  0  0  0  0  0  0  0  0  0  0  0
    3.1951    3.0600    0.0000 H   0  0  0  0  0  0  0  0  0  0  0  0
    5.1350   -1.4400    0.0000 H   0  0  0  0  0  0  0  0  0  0  0  0
    5.2181    4.2500    0.0000 H   0  0  0  0  0  0  0  0  0  0  0  0
    4.5981    4.8700    0.0000 H   0  0  0  0  0  0  0  0  0  0  0  0
    3.9781    4.2500    0.0000 H   0  0  0  0  0  0  0  0  0  0  0  0
    2.3291   -3.0600    0.0000 H   0  0  0  0  0  0  0  0  0  0  0  0
    5.1350   -3.0600    0.0000 H   0  0  0  0  0  0  0  0  0  0  0  0
  1 18  1  0  0  0  0
  2 13  1  0  0  0  0
  3  8  2  0  0  0  0
  4  7  1  0  0  0  0
  4  8  1  0  0  0  0
  4 21  1  0  0  0  0
  5  8  1  0  0  0  0
  5  9  2  0  0  0  0
  5 10  1  0  0  0  0
  6 11  2  0  0  0  0
  6 12  1  0  0  0  0
  6 15  1  0  0  0  0
  7 13  2  0  0  0  0
  7 14  1  0  0  0  0
  9 11  1  0  0  0  0
  9 19  1  0  0  0  0
 10 12  2  0  0  0  0
 10 20  1  0  0  0  0
 11 22  1  0  0  0  0
 12 23  1  0  0  0  0
 13 16  1  0  0  0  0
 14 17  2  0  0  0  0
 14 24  1  0  0  0  0
 15 25  1  0  0  0  0
 15 26  1  0  0  0  0
 15 27  1  0  0  0  0
 16 18  2  0  0  0  0
 16 28  1  0  0  0  0
 17 18  1  0  0  0  0
 17 29  1  0  0  0  0
M  END
> <PUBCHEM_COMPOUND_CID>
16618636

> <PUBCHEM_COMPOUND_CANONICALIZED>
1

> <PUBCHEM_CACTVS_COMPLEXITY>
292

> <PUBCHEM_CACTVS_HBOND_ACCEPTOR>
1

> <PUBCHEM_CACTVS_HBOND_DONOR>
1

> <PUBCHEM_CACTVS_ROTATABLE_BOND>
2

> <PUBCHEM_CACTVS_SUBSKEYS>
AAADccByIAAEEAAAAAAAAAAAAAAAAAAAAAAwYAAAAAAAAAABQAAAHgJQAAABrAqBmCAywILAAACIAiVSUACCAAAlBwQIiAEAZugIIDLBl5HEIQhglADIy5cYiACOQAAgAABAABCAAEAAAIAAIAAAAAAAAA==

> <PUBCHEM_IUPAC_OPENEYE_NAME>
N-(4-bromo-2-chloro-phenyl)-4-methyl-benzamide

> <PUBCHEM_IUPAC_CAS_NAME>
N-(4-bromo-2-chlorophenyl)-4-methylbenzamide

> <PUBCHEM_IUPAC_NAME>
N-(4-bromo-2-chlorophenyl)-4-methylbenzamide

> <PUBCHEM_IUPAC_SYSTEMATIC_NAME>
N-(4-bromanyl-2-chloranyl-phenyl)-4-methyl-benzamide

> <PUBCHEM_IUPAC_TRADITIONAL_NAME>
N-(4-bromo-2-chloro-phenyl)-4-methyl-benzamide

> <PUBCHEM_IUPAC_INCHI>
InChI=1S/C14H11BrClNO/c1-9-2-4-10(5-3-9)14(18)17-13-7-6-11(15)8-12(13)16/h2-8H,1H3,(H,17,18)

> <PUBCHEM_IUPAC_INCHIKEY>
AFAXDUPOSKDVNM-UHFFFAOYSA-N

> <PUBCHEM_XLOGP3>
4.3

> <PUBCHEM_EXACT_MASS>
322.971254

> <PUBCHEM_MOLECULAR_FORMULA>
C14H11BrClNO

> <PUBCHEM_MOLECULAR_WEIGHT>
324.60024

> <PUBCHEM_OPENEYE_CAN_SMILES>
CC1=CC=C(C=C1)C(=O)NC2=C(C=C(C=C2)Br)Cl

> <PUBCHEM_OPENEYE_ISO_SMILES>
CC1=CC=C(C=C1)C(=O)NC2=C(C=C(C=C2)Br)Cl

> <PUBCHEM_CACTVS_TPSA>
29.1

> <PUBCHEM_MONOISOTOPIC_WEIGHT>
322.971254

> <PUBCHEM_TOTAL_CHARGE>
0

> <PUBCHEM_HEAVY_ATOM_COUNT>
18

> <PUBCHEM_ATOM_DEF_STEREO_COUNT>
0

> <PUBCHEM_ATOM_UDEF_STEREO_COUNT>
0

> <PUBCHEM_BOND_DEF_STEREO_COUNT>
0

> <PUBCHEM_BOND_UDEF_STEREO_COUNT>
0

> <PUBCHEM_ISOTOPIC_ATOM_COUNT>
0

> <PUBCHEM_COMPONENT_COUNT>
1

> <PUBCHEM_CACTVS_TAUTO_COUNT>
5

> <PUBCHEM_COORDINATE_TYPE>
1
5
255

> <PUBCHEM_BONDANNOTATIONS>
10  12  8
13  16  8
14  17  8
16  18  8
17  18  8
5  10  8
5  9  8
6  11  8
6  12  8
7  13  8
7  14  8
9  11  8

$$$$
