47478049
  -OEChem-06121304452D

 42 44  0     0  0  0  0  0  0999 V2000
    6.6353   -0.9292    0.0000 O   0  0  0  0  0  0  0  0  0  0  0  0
    6.2781    0.7656    0.0000 N   0  0  0  0  0  0  0  0  0  0  0  0
    4.6783   -2.9511    0.0000 N   0  0  0  0  0  0  0  0  0  0  0  0
    7.5673    1.9224    0.0000 C   0  0  0  0  0  0  0  0  0  0  0  0
    8.5189    2.2298    0.0000 C   0  0  0  0  0  0  0  0  0  0  0  0
    6.9809    2.7324    0.0000 C   0  0  0  0  0  0  0  0  0  0  0  0
    8.5206    3.2298    0.0000 C   0  0  0  0  0  0  0  0  0  0  0  0
    7.5701    3.5404    0.0000 C   0  0  0  0  0  0  0  0  0  0  0  0
    7.2566    0.9719    0.0000 C   0  0  0  0  0  0  0  0  0  0  0  0
    5.9674   -0.1849    0.0000 C   0  0  0  0  0  0  0  0  0  0  0  0
    5.6103    1.5099    0.0000 C   0  0  0  0  0  0  0  0  0  0  0  0
    4.9889   -0.3911    0.0000 C   0  0  0  0  0  0  0  0  0  0  0  0
    4.6783   -1.3416    0.0000 C   0  0  0  0  0  0  0  0  0  0  0  0
    3.7320   -1.6464    0.0000 C   0  0  0  0  0  0  0  0  0  0  0  0
    3.7320   -2.6464    0.0000 C   0  0  0  0  0  0  0  0  0  0  0  0
    5.2619   -2.1464    0.0000 C   0  0  0  0  0  0  0  0  0  0  0  0
    2.8660   -1.1464    0.0000 C   0  0  0  0  0  0  0  0  0  0  0  0
    2.8660   -3.1464    0.0000 C   0  0  0  0  0  0  0  0  0  0  0  0
    2.0000   -1.6464    0.0000 C   0  0  0  0  0  0  0  0  0  0  0  0
    2.0000   -2.6464    0.0000 C   0  0  0  0  0  0  0  0  0  0  0  0
    6.9547    1.8264    0.0000 H   0  0  0  0  0  0  0  0  0  0  0  0
    8.6467    1.6231    0.0000 H   0  0  0  0  0  0  0  0  0  0  0  0
    9.1356    2.2935    0.0000 H   0  0  0  0  0  0  0  0  0  0  0  0
    6.5208    3.1481    0.0000 H   0  0  0  0  0  0  0  0  0  0  0  0
    6.5194    2.3184    0.0000 H   0  0  0  0  0  0  0  0  0  0  0  0
    9.1371    3.1639    0.0000 H   0  0  0  0  0  0  0  0  0  0  0  0
    8.6505    3.8360    0.0000 H   0  0  0  0  0  0  0  0  0  0  0  0
    7.8232    4.1064    0.0000 H   0  0  0  0  0  0  0  0  0  0  0  0
    7.0337    3.8513    0.0000 H   0  0  0  0  0  0  0  0  0  0  0  0
    7.2772    0.3522    0.0000 H   0  0  0  0  0  0  0  0  0  0  0  0
    7.8704    0.8845    0.0000 H   0  0  0  0  0  0  0  0  0  0  0  0
    6.0717    1.9240    0.0000 H   0  0  0  0  0  0  0  0  0  0  0  0
    5.1962    1.9714    0.0000 H   0  0  0  0  0  0  0  0  0  0  0  0
    5.1488    1.0959    0.0000 H   0  0  0  0  0  0  0  0  0  0  0  0
    4.9684    0.2286    0.0000 H   0  0  0  0  0  0  0  0  0  0  0  0
    4.3751   -0.3038    0.0000 H   0  0  0  0  0  0  0  0  0  0  0  0
    5.8819   -2.1464    0.0000 H   0  0  0  0  0  0  0  0  0  0  0  0
    4.8709   -3.5404    0.0000 H   0  0  0  0  0  0  0  0  0  0  0  0
    2.8660   -0.5264    0.0000 H   0  0  0  0  0  0  0  0  0  0  0  0
    2.8660   -3.7664    0.0000 H   0  0  0  0  0  0  0  0  0  0  0  0
    1.4631   -1.3364    0.0000 H   0  0  0  0  0  0  0  0  0  0  0  0
    1.4631   -2.9564    0.0000 H   0  0  0  0  0  0  0  0  0  0  0  0
  1 10  2  0  0  0  0
  2  9  1  0  0  0  0
  2 10  1  0  0  0  0
  2 11  1  0  0  0  0
  3 15  1  0  0  0  0
  3 16  1  0  0  0  0
  3 38  1  0  0  0  0
  4  5  1  0  0  0  0
  4  6  1  0  0  0  0
  4  9  1  0  0  0  0
  4 21  1  0  0  0  0
  5  7  1  0  0  0  0
  5 22  1  0  0  0  0
  5 23  1  0  0  0  0
  6  8  1  0  0  0  0
  6 24  1  0  0  0  0
  6 25  1  0  0  0  0
  7  8  1  0  0  0  0
  7 26  1  0  0  0  0
  7 27  1  0  0  0  0
  8 28  1  0  0  0  0
  8 29  1  0  0  0  0
  9 30  1  0  0  0  0
  9 31  1  0  0  0  0
 10 12  1  0  0  0  0
 11 32  1  0  0  0  0
 11 33  1  0  0  0  0
 11 34  1  0  0  0  0
 12 13  1  0  0  0  0
 12 35  1  0  0  0  0
 12 36  1  0  0  0  0
 13 14  1  0  0  0  0
 13 16  2  0  0  0  0
 14 15  1  0  0  0  0
 14 17  2  0  0  0  0
 15 18  2  0  0  0  0
 16 37  1  0  0  0  0
 17 19  1  0  0  0  0
 17 39  1  0  0  0  0
 18 20  1  0  0  0  0
 18 40  1  0  0  0  0
 19 20  2  0  0  0  0
 19 41  1  0  0  0  0
 20 42  1  0  0  0  0
M  END
> <PUBCHEM_COMPOUND_CID>
47478049

> <PUBCHEM_COMPOUND_CANONICALIZED>
1

> <PUBCHEM_CACTVS_COMPLEXITY>
338

> <PUBCHEM_CACTVS_HBOND_ACCEPTOR>
1

> <PUBCHEM_CACTVS_HBOND_DONOR>
1

> <PUBCHEM_CACTVS_ROTATABLE_BOND>
4

> <PUBCHEM_CACTVS_SUBSKEYS>
AAADceB7IAAAAAAAAAAAAAAAAAAAAeIAAAAwAAAAAAAAAFgB8AAAHgAQAAAADQjBngQ+wPPJkACoAzV3VACCgCAxAiAI2aE4ZJgIIPLAlZGEIAhglgDIyAccicCegAAAAAACAAAAAAAAAAQAAAAAAAAAAA==

> <PUBCHEM_IUPAC_OPENEYE_NAME>
N-(cyclopentylmethyl)-2-(1H-indol-3-yl)-N-methyl-acetamide

> <PUBCHEM_IUPAC_CAS_NAME>
N-(cyclopentylmethyl)-2-(1H-indol-3-yl)-N-methylacetamide

> <PUBCHEM_IUPAC_NAME>
N-(cyclopentylmethyl)-2-(1H-indol-3-yl)-N-methylacetamide

> <PUBCHEM_IUPAC_SYSTEMATIC_NAME>
N-(cyclopentylmethyl)-2-(1H-indol-3-yl)-N-methyl-ethanamide

> <PUBCHEM_IUPAC_TRADITIONAL_NAME>
N-(cyclopentylmethyl)-2-(1H-indol-3-yl)-N-methyl-acetamide

> <PUBCHEM_IUPAC_INCHI>
InChI=1S/C17H22N2O/c1-19(12-13-6-2-3-7-13)17(20)10-14-11-18-16-9-5-4-8-15(14)16/h4-5,8-9,11,13,18H,2-3,6-7,10,12H2,1H3

> <PUBCHEM_IUPAC_INCHIKEY>
VBWVFHTULDWUBA-UHFFFAOYSA-N

> <PUBCHEM_XLOGP3>
3.2

> <PUBCHEM_EXACT_MASS>
270.173213

> <PUBCHEM_MOLECULAR_FORMULA>
C17H22N2O

> <PUBCHEM_MOLECULAR_WEIGHT>
270.36938

> <PUBCHEM_OPENEYE_CAN_SMILES>
CN(CC1CCCC1)C(=O)CC2=CNC3=CC=CC=C32

> <PUBCHEM_OPENEYE_ISO_SMILES>
CN(CC1CCCC1)C(=O)CC2=CNC3=CC=CC=C32

> <PUBCHEM_CACTVS_TPSA>
36.1

> <PUBCHEM_MONOISOTOPIC_WEIGHT>
270.173213

> <PUBCHEM_TOTAL_CHARGE>
0

> <PUBCHEM_HEAVY_ATOM_COUNT>
20

> <PUBCHEM_ATOM_DEF_STEREO_COUNT>
0

> <PUBCHEM_ATOM_UDEF_STEREO_COUNT>
0

> <PUBCHEM_BOND_DEF_STEREO_COUNT>
0

> <PUBCHEM_BOND_UDEF_STEREO_COUNT>
0

> <PUBCHEM_ISOTOPIC_ATOM_COUNT>
0

> <PUBCHEM_COMPONENT_COUNT>
1

> <PUBCHEM_CACTVS_TAUTO_COUNT>
1

> <PUBCHEM_COORDINATE_TYPE>
1
5
255

> <PUBCHEM_BONDANNOTATIONS>
13  14  8
13  16  8
14  15  8
14  17  8
15  18  8
17  19  8
18  20  8
19  20  8
3  15  8
3  16  8

$$$$
47482207
  -OEChem-06121304452D

 39 41  0     0  0  0  0  0  0999 V2000
    6.7619    1.8264    0.0000 O   0  0  0  0  0  0  0  0  0  0  0  0
    6.7619    0.0943    0.0000 N   0  0  0  0  0  0  0  0  0  0  0  0
    4.6783    1.7651    0.0000 N   0  0  0  0  0  0  0  0  0  0  0  0
    8.2619   -0.7717    0.0000 C   0  0  0  0  0  0  0  0  0  0  0  0
    7.8551   -1.6853    0.0000 C   0  0  0  0  0  0  0  0  0  0  0  0
    9.2564   -0.8762    0.0000 C   0  0  0  0  0  0  0  0  0  0  0  0
    8.5983   -2.3544    0.0000 C   0  0  0  0  0  0  0  0  0  0  0  0
    9.4643   -1.8544    0.0000 C   0  0  0  0  0  0  0  0  0  0  0  0
    7.7619    0.0943    0.0000 C   0  0  0  0  0  0  0  0  0  0  0  0
    6.2619    0.9603    0.0000 C   0  0  0  0  0  0  0  0  0  0  0  0
    6.2619   -0.7717    0.0000 C   0  0  0  0  0  0  0  0  0  0  0  0
    5.2619    0.9603    0.0000 C   0  0  0  0  0  0  0  0  0  0  0  0
    4.6783    0.1556    0.0000 C   0  0  0  0  0  0  0  0  0  0  0  0
    3.7320    1.4603    0.0000 C   0  0  0  0  0  0  0  0  0  0  0  0
    3.7320    0.4603    0.0000 C   0  0  0  0  0  0  0  0  0  0  0  0
    2.8660    1.9603    0.0000 C   0  0  0  0  0  0  0  0  0  0  0  0
    2.8660   -0.0397    0.0000 C   0  0  0  0  0  0  0  0  0  0  0  0
    2.0000    1.4603    0.0000 C   0  0  0  0  0  0  0  0  0  0  0  0
    2.0000    0.4603    0.0000 C   0  0  0  0  0  0  0  0  0  0  0  0
    8.5996   -0.2517    0.0000 H   0  0  0  0  0  0  0  0  0  0  0  0
    7.3182   -1.3753    0.0000 H   0  0  0  0  0  0  0  0  0  0  0  0
    7.4907   -2.1869    0.0000 H   0  0  0  0  0  0  0  0  0  0  0  0
    9.8730   -0.8114    0.0000 H   0  0  0  0  0  0  0  0  0  0  0  0
    9.2564   -0.2562    0.0000 H   0  0  0  0  0  0  0  0  0  0  0  0
    8.1375   -2.7692    0.0000 H   0  0  0  0  0  0  0  0  0  0  0  0
    8.9627   -2.8560    0.0000 H   0  0  0  0  0  0  0  0  0  0  0  0
    9.7165   -2.4208    0.0000 H   0  0  0  0  0  0  0  0  0  0  0  0
   10.0540   -1.6628    0.0000 H   0  0  0  0  0  0  0  0  0  0  0  0
    8.3445    0.3064    0.0000 H   0  0  0  0  0  0  0  0  0  0  0  0
    7.6542    0.7049    0.0000 H   0  0  0  0  0  0  0  0  0  0  0  0
    5.7249   -0.4617    0.0000 H   0  0  0  0  0  0  0  0  0  0  0  0
    5.9519   -1.3086    0.0000 H   0  0  0  0  0  0  0  0  0  0  0  0
    6.7988   -1.0817    0.0000 H   0  0  0  0  0  0  0  0  0  0  0  0
    4.8709    2.3544    0.0000 H   0  0  0  0  0  0  0  0  0  0  0  0
    4.8709   -0.4337    0.0000 H   0  0  0  0  0  0  0  0  0  0  0  0
    2.8660    2.5803    0.0000 H   0  0  0  0  0  0  0  0  0  0  0  0
    2.8660   -0.6597    0.0000 H   0  0  0  0  0  0  0  0  0  0  0  0
    1.4631    1.7703    0.0000 H   0  0  0  0  0  0  0  0  0  0  0  0
    1.4631    0.1503    0.0000 H   0  0  0  0  0  0  0  0  0  0  0  0
  1 10  2  0  0  0  0
  2  9  1  0  0  0  0
  2 10  1  0  0  0  0
  2 11  1  0  0  0  0
  3 12  1  0  0  0  0
  3 14  1  0  0  0  0
  3 34  1  0  0  0  0
  4  5  1  0  0  0  0
  4  6  1  0  0  0  0
  4  9  1  0  0  0  0
  4 20  1  0  0  0  0
  5  7  1  0  0  0  0
  5 21  1  0  0  0  0
  5 22  1  0  0  0  0
  6  8  1  0  0  0  0
  6 23  1  0  0  0  0
  6 24  1  0  0  0  0
  7  8  1  0  0  0  0
  7 25  1  0  0  0  0
  7 26  1  0  0  0  0
  8 27  1  0  0  0  0
  8 28  1  0  0  0  0
  9 29  1  0  0  0  0
  9 30  1  0  0  0  0
 10 12  1  0  0  0  0
 11 31  1  0  0  0  0
 11 32  1  0  0  0  0
 11 33  1  0  0  0  0
 12 13  2  0  0  0  0
 13 15  1  0  0  0  0
 13 35  1  0  0  0  0
 14 15  1  0  0  0  0
 14 16  2  0  0  0  0
 15 17  2  0  0  0  0
 16 18  1  0  0  0  0
 16 36  1  0  0  0  0
 17 19  1  0  0  0  0
 17 37  1  0  0  0  0
 18 19  2  0  0  0  0
 18 38  1  0  0  0  0
 19 39  1  0  0  0  0
M  END
> <PUBCHEM_COMPOUND_CID>
47482207

> <PUBCHEM_COMPOUND_CANONICALIZED>
1

> <PUBCHEM_CACTVS_COMPLEXITY>
325

> <PUBCHEM_CACTVS_HBOND_ACCEPTOR>
1

> <PUBCHEM_CACTVS_HBOND_DONOR>
1

> <PUBCHEM_CACTVS_ROTATABLE_BOND>
3

> <PUBCHEM_CACTVS_SUBSKEYS>
AAADceB7IAAAAAAAAAAAAAAAAAAAAeIAAAAwAAAAAAAAAFgB8AAAHgAQAAAADQjBngQywPPJkACoAyVyVACCgCAnAiAImSG4ZNgIYPLAlbGUIQhglgDIyYcYiYCeAAAAAAACAAAAAAAAAAQAAAAAAAAAAA==

> <PUBCHEM_IUPAC_OPENEYE_NAME>
N-(cyclopentylmethyl)-N-methyl-1H-indole-2-carboxamide

> <PUBCHEM_IUPAC_CAS_NAME>
N-(cyclopentylmethyl)-N-methyl-1H-indole-2-carboxamide

> <PUBCHEM_IUPAC_NAME>
N-(cyclopentylmethyl)-N-methyl-1H-indole-2-carboxamide

> <PUBCHEM_IUPAC_SYSTEMATIC_NAME>
N-(cyclopentylmethyl)-N-methyl-1H-indole-2-carboxamide

> <PUBCHEM_IUPAC_TRADITIONAL_NAME>
N-(cyclopentylmethyl)-N-methyl-1H-indole-2-carboxamide

> <PUBCHEM_IUPAC_INCHI>
InChI=1S/C16H20N2O/c1-18(11-12-6-2-3-7-12)16(19)15-10-13-8-4-5-9-14(13)17-15/h4-5,8-10,12,17H,2-3,6-7,11H2,1H3

> <PUBCHEM_IUPAC_INCHIKEY>
LJMFWQLQPMOJSD-UHFFFAOYSA-N

> <PUBCHEM_XLOGP3>
4.1

> <PUBCHEM_EXACT_MASS>
256.157563

> <PUBCHEM_MOLECULAR_FORMULA>
C16H20N2O

> <PUBCHEM_MOLECULAR_WEIGHT>
256.3428

> <PUBCHEM_OPENEYE_CAN_SMILES>
CN(CC1CCCC1)C(=O)C2=CC3=CC=CC=C3N2

> <PUBCHEM_OPENEYE_ISO_SMILES>
CN(CC1CCCC1)C(=O)C2=CC3=CC=CC=C3N2

> <PUBCHEM_CACTVS_TPSA>
36.1

> <PUBCHEM_MONOISOTOPIC_WEIGHT>
256.157563

> <PUBCHEM_TOTAL_CHARGE>
0

> <PUBCHEM_HEAVY_ATOM_COUNT>
19

> <PUBCHEM_ATOM_DEF_STEREO_COUNT>
0

> <PUBCHEM_ATOM_UDEF_STEREO_COUNT>
0

> <PUBCHEM_BOND_DEF_STEREO_COUNT>
0

> <PUBCHEM_BOND_UDEF_STEREO_COUNT>
0

> <PUBCHEM_ISOTOPIC_ATOM_COUNT>
0

> <PUBCHEM_COMPONENT_COUNT>
1

> <PUBCHEM_CACTVS_TAUTO_COUNT>
6

> <PUBCHEM_COORDINATE_TYPE>
1
5
255

> <PUBCHEM_BONDANNOTATIONS>
12  13  8
13  15  8
14  15  8
14  16  8
15  17  8
16  18  8
17  19  8
18  19  8
3  12  8
3  14  8

$$$$
47482209
  -OEChem-06121304452D

 39 41  0     0  0  0  0  0  0999 V2000
    4.3211    1.1811    0.0000 O   0  0  0  0  0  0  0  0  0  0  0  0
    5.9674    0.6430    0.0000 N   0  0  0  0  0  0  0  0  0  0  0  0
    4.6783   -2.1232    0.0000 N   0  0  0  0  0  0  0  0  0  0  0  0
    7.2566    1.7997    0.0000 C   0  0  0  0  0  0  0  0  0  0  0  0
    7.9986    1.1293    0.0000 C   0  0  0  0  0  0  0  0  0  0  0  0
    7.6649    2.7125    0.0000 C   0  0  0  0  0  0  0  0  0  0  0  0
    8.8655    1.6278    0.0000 C   0  0  0  0  0  0  0  0  0  0  0  0
    8.6593    2.6063    0.0000 C   0  0  0  0  0  0  0  0  0  0  0  0
    6.2781    1.5935    0.0000 C   0  0  0  0  0  0  0  0  0  0  0  0
    4.9889    0.4368    0.0000 C   0  0  0  0  0  0  0  0  0  0  0  0
    6.6353   -0.1013    0.0000 C   0  0  0  0  0  0  0  0  0  0  0  0
    4.6783   -0.5138    0.0000 C   0  0  0  0  0  0  0  0  0  0  0  0
    3.7320   -0.8185    0.0000 C   0  0  0  0  0  0  0  0  0  0  0  0
    3.7320   -1.8185    0.0000 C   0  0  0  0  0  0  0  0  0  0  0  0
    5.2619   -1.3185    0.0000 C   0  0  0  0  0  0  0  0  0  0  0  0
    2.8660   -0.3185    0.0000 C   0  0  0  0  0  0  0  0  0  0  0  0
    2.8660   -2.3185    0.0000 C   0  0  0  0  0  0  0  0  0  0  0  0
    2.0000   -0.8185    0.0000 C   0  0  0  0  0  0  0  0  0  0  0  0
    2.0000   -1.8185    0.0000 C   0  0  0  0  0  0  0  0  0  0  0  0
    6.8673    2.2822    0.0000 H   0  0  0  0  0  0  0  0  0  0  0  0
    7.5371    0.7152    0.0000 H   0  0  0  0  0  0  0  0  0  0  0  0
    8.3622    0.6271    0.0000 H   0  0  0  0  0  0  0  0  0  0  0  0
    7.7949    3.3188    0.0000 H   0  0  0  0  0  0  0  0  0  0  0  0
    7.0756    2.9052    0.0000 H   0  0  0  0  0  0  0  0  0  0  0  0
    9.1167    1.0610    0.0000 H   0  0  0  0  0  0  0  0  0  0  0  0
    9.4555    1.8184    0.0000 H   0  0  0  0  0  0  0  0  0  0  0  0
    9.2760    2.6700    0.0000 H   0  0  0  0  0  0  0  0  0  0  0  0
    8.6603    3.2263    0.0000 H   0  0  0  0  0  0  0  0  0  0  0  0
    6.2575    2.2132    0.0000 H   0  0  0  0  0  0  0  0  0  0  0  0
    5.6643    1.6808    0.0000 H   0  0  0  0  0  0  0  0  0  0  0  0
    6.1738   -0.5154    0.0000 H   0  0  0  0  0  0  0  0  0  0  0  0
    7.0494   -0.5628    0.0000 H   0  0  0  0  0  0  0  0  0  0  0  0
    7.0968    0.3127    0.0000 H   0  0  0  0  0  0  0  0  0  0  0  0
    5.8819   -1.3185    0.0000 H   0  0  0  0  0  0  0  0  0  0  0  0
    4.8709   -2.7125    0.0000 H   0  0  0  0  0  0  0  0  0  0  0  0
    2.8660    0.3015    0.0000 H   0  0  0  0  0  0  0  0  0  0  0  0
    2.8660   -2.9385    0.0000 H   0  0  0  0  0  0  0  0  0  0  0  0
    1.4631   -0.5085    0.0000 H   0  0  0  0  0  0  0  0  0  0  0  0
    1.4631   -2.1285    0.0000 H   0  0  0  0  0  0  0  0  0  0  0  0
  1 10  2  0  0  0  0
  2  9  1  0  0  0  0
  2 10  1  0  0  0  0
  2 11  1  0  0  0  0
  3 14  1  0  0  0  0
  3 15  1  0  0  0  0
  3 35  1  0  0  0  0
  4  5  1  0  0  0  0
  4  6  1  0  0  0  0
  4  9  1  0  0  0  0
  4 20  1  0  0  0  0
  5  7  1  0  0  0  0
  5 21  1  0  0  0  0
  5 22  1  0  0  0  0
  6  8  1  0  0  0  0
  6 23  1  0  0  0  0
  6 24  1  0  0  0  0
  7  8  1  0  0  0  0
  7 25  1  0  0  0  0
  7 26  1  0  0  0  0
  8 27  1  0  0  0  0
  8 28  1  0  0  0  0
  9 29  1  0  0  0  0
  9 30  1  0  0  0  0
 10 12  1  0  0  0  0
 11 31  1  0  0  0  0
 11 32  1  0  0  0  0
 11 33  1  0  0  0  0
 12 13  1  0  0  0  0
 12 15  2  0  0  0  0
 13 14  1  0  0  0  0
 13 16  2  0  0  0  0
 14 17  2  0  0  0  0
 15 34  1  0  0  0  0
 16 18  1  0  0  0  0
 16 36  1  0  0  0  0
 17 19  1  0  0  0  0
 17 37  1  0  0  0  0
 18 19  2  0  0  0  0
 18 38  1  0  0  0  0
 19 39  1  0  0  0  0
M  END
> <PUBCHEM_COMPOUND_CID>
47482209

> <PUBCHEM_COMPOUND_CANONICALIZED>
1

> <PUBCHEM_CACTVS_COMPLEXITY>
325

> <PUBCHEM_CACTVS_HBOND_ACCEPTOR>
1

> <PUBCHEM_CACTVS_HBOND_DONOR>
1

> <PUBCHEM_CACTVS_ROTATABLE_BOND>
3

> <PUBCHEM_CACTVS_SUBSKEYS>
AAADceB7IAAAAAAAAAAAAAAAAAAAAeIAAAAwAAAAAAAAAFgB8AAAHgAQAAAADQjBngQ+wPPJkACoAzV3VACCgCA1AiAI2aE4ZNgIIPrA1ZGEIYhglgDIyccciMCOgAAAAAACAAAAAAAAAAQAAAAAAAAAAA==

> <PUBCHEM_IUPAC_OPENEYE_NAME>
N-(cyclopentylmethyl)-N-methyl-1H-indole-3-carboxamide

> <PUBCHEM_IUPAC_CAS_NAME>
N-(cyclopentylmethyl)-N-methyl-1H-indole-3-carboxamide

> <PUBCHEM_IUPAC_NAME>
N-(cyclopentylmethyl)-N-methyl-1H-indole-3-carboxamide

> <PUBCHEM_IUPAC_SYSTEMATIC_NAME>
N-(cyclopentylmethyl)-N-methyl-1H-indole-3-carboxamide

> <PUBCHEM_IUPAC_TRADITIONAL_NAME>
N-(cyclopentylmethyl)-N-methyl-1H-indole-3-carboxamide

> <PUBCHEM_IUPAC_INCHI>
InChI=1S/C16H20N2O/c1-18(11-12-6-2-3-7-12)16(19)14-10-17-15-9-5-4-8-13(14)15/h4-5,8-10,12,17H,2-3,6-7,11H2,1H3

> <PUBCHEM_IUPAC_INCHIKEY>
UUMLTQMPYWCSTJ-UHFFFAOYSA-N

> <PUBCHEM_XLOGP3>
3.8

> <PUBCHEM_EXACT_MASS>
256.157563

> <PUBCHEM_MOLECULAR_FORMULA>
C16H20N2O

> <PUBCHEM_MOLECULAR_WEIGHT>
256.3428

> <PUBCHEM_OPENEYE_CAN_SMILES>
CN(CC1CCCC1)C(=O)C2=CNC3=CC=CC=C32

> <PUBCHEM_OPENEYE_ISO_SMILES>
CN(CC1CCCC1)C(=O)C2=CNC3=CC=CC=C32

> <PUBCHEM_CACTVS_TPSA>
36.1

> <PUBCHEM_MONOISOTOPIC_WEIGHT>
256.157563

> <PUBCHEM_TOTAL_CHARGE>
0

> <PUBCHEM_HEAVY_ATOM_COUNT>
19

> <PUBCHEM_ATOM_DEF_STEREO_COUNT>
0

> <PUBCHEM_ATOM_UDEF_STEREO_COUNT>
0

> <PUBCHEM_BOND_DEF_STEREO_COUNT>
0

> <PUBCHEM_BOND_UDEF_STEREO_COUNT>
0

> <PUBCHEM_ISOTOPIC_ATOM_COUNT>
0

> <PUBCHEM_COMPONENT_COUNT>
1

> <PUBCHEM_CACTVS_TAUTO_COUNT>
3

> <PUBCHEM_COORDINATE_TYPE>
1
5
255

> <PUBCHEM_BONDANNOTATIONS>
12  13  8
12  15  8
13  14  8
13  16  8
14  17  8
16  18  8
17  19  8
18  19  8
3  14  8
3  15  8

$$$$
