5571260
  -OEChem-11301216592D

 48 50  0     0  0  0  0  0  0999 V2000
    6.8970    1.8170    0.0000 S   0  0  0  0  0  0  0  0  0  0  0  0
    4.2514    2.2237    0.0000 S   0  0  0  0  0  0  0  0  0  0  0  0
   11.2272   -1.6830    0.0000 O   0  0  0  0  0  0  0  0  0  0  0  0
   14.6913   -1.6830    0.0000 O   0  0  0  0  0  0  0  0  0  0  0  0
    6.3970    0.9510    0.0000 O   0  0  0  0  0  0  0  0  0  0  0  0
    7.3970    2.6830    0.0000 O   0  0  0  0  0  0  0  0  0  0  0  0
   12.9592   -1.6830    0.0000 N   0  0  0  0  0  0  0  0  0  0  0  0
   10.3611   -0.1830    0.0000 N   0  0  0  0  0  0  0  0  0  0  0  0
    6.0310    2.3170    0.0000 N   0  5  0  0  0  0  0  0  0  0  0  0
    5.0604    0.8225    0.0000 N   0  0  0  0  0  0  0  0  0  0  0  0
    4.0823    0.6146    0.0000 N   0  0  0  0  0  0  0  0  0  0  0  0
   15.5573    0.8170    0.0000 N   0  0  0  0  0  0  0  0  0  0  0  0
   12.0932   -0.1830    0.0000 C   0  0  0  0  0  0  0  0  0  0  0  0
   12.9592    0.3170    0.0000 C   0  0  0  0  0  0  0  0  0  0  0  0
   12.0932   -1.1830    0.0000 C   0  0  0  0  0  0  0  0  0  0  0  0
   13.8252   -0.1830    0.0000 C   0  0  0  0  0  0  0  0  0  0  0  0
    9.4951    0.3170    0.0000 C   0  0  0  0  0  0  0  0  0  0  0  0
   11.2272    0.3170    0.0000 C   0  0  0  0  0  0  0  0  0  0  0  0
    7.7631    1.3170    0.0000 C   0  0  0  0  0  0  0  0  0  0  0  0
   13.8252   -1.1830    0.0000 C   0  0  0  0  0  0  0  0  0  0  0  0
   12.9592    1.3170    0.0000 C   0  0  0  0  0  0  0  0  0  0  0  0
    9.4951    1.3170    0.0000 C   0  0  0  0  0  0  0  0  0  0  0  0
    8.6291   -0.1830    0.0000 C   0  0  0  0  0  0  0  0  0  0  0  0
    8.6291    1.8170    0.0000 C   0  0  0  0  0  0  0  0  0  0  0  0
    7.7631    0.3170    0.0000 C   0  0  0  0  0  0  0  0  0  0  0  0
   12.9592   -2.6830    0.0000 C   0  0  0  0  0  0  0  0  0  0  0  0
   14.6913    0.3170    0.0000 C   0  0  0  0  0  0  0  0  0  0  0  0
    2.5878    1.5851    0.0000 C   0  0  0  0  0  0  0  0  0  0  0  0
    5.1650    1.8170    0.0000 C   0  0  0  0  0  0  0  0  0  0  0  0
    3.5823    1.4806    0.0000 C   0  0  0  0  0  0  0  0  0  0  0  0
    2.0000    0.7761    0.0000 C   0  0  0  0  0  0  0  0  0  0  0  0
   11.2272    0.9370    0.0000 H   0  0  0  0  0  0  0  0  0  0  0  0
   10.3611   -0.8030    0.0000 H   0  0  0  0  0  0  0  0  0  0  0  0
   13.5792    1.3170    0.0000 H   0  0  0  0  0  0  0  0  0  0  0  0
   12.9592    1.9370    0.0000 H   0  0  0  0  0  0  0  0  0  0  0  0
   12.3392    1.3170    0.0000 H   0  0  0  0  0  0  0  0  0  0  0  0
   10.0320    1.6270    0.0000 H   0  0  0  0  0  0  0  0  0  0  0  0
    8.6291   -0.8030    0.0000 H   0  0  0  0  0  0  0  0  0  0  0  0
    8.6291    2.4370    0.0000 H   0  0  0  0  0  0  0  0  0  0  0  0
    7.2261    0.0070    0.0000 H   0  0  0  0  0  0  0  0  0  0  0  0
   12.3392   -2.6830    0.0000 H   0  0  0  0  0  0  0  0  0  0  0  0
   12.9592   -3.3030    0.0000 H   0  0  0  0  0  0  0  0  0  0  0  0
   13.5792   -2.6830    0.0000 H   0  0  0  0  0  0  0  0  0  0  0  0
    2.7587    2.1811    0.0000 H   0  0  0  0  0  0  0  0  0  0  0  0
    2.0305    1.8569    0.0000 H   0  0  0  0  0  0  0  0  0  0  0  0
    1.4984    1.1405    0.0000 H   0  0  0  0  0  0  0  0  0  0  0  0
    1.6356    0.2745    0.0000 H   0  0  0  0  0  0  0  0  0  0  0  0
    2.5016    0.4117    0.0000 H   0  0  0  0  0  0  0  0  0  0  0  0
  1  5  2  0  0  0  0
  1  6  2  0  0  0  0
  1  9  1  0  0  0  0
  1 19  1  0  0  0  0
  2 29  1  0  0  0  0
  2 30  1  0  0  0  0
  3 15  2  0  0  0  0
  4 20  2  0  0  0  0
  7 15  1  0  0  0  0
  7 20  1  0  0  0  0
  7 26  1  0  0  0  0
  8 17  1  0  0  0  0
  8 18  1  0  0  0  0
  8 33  1  0  0  0  0
  9 29  1  0  0  0  0
 10 11  1  0  0  0  0
 10 29  2  0  0  0  0
 11 30  2  0  0  0  0
 12 27  3  0  0  0  0
 13 14  1  0  0  0  0
 13 15  1  0  0  0  0
 13 18  2  0  0  0  0
 14 16  2  0  0  0  0
 14 21  1  0  0  0  0
 16 20  1  0  0  0  0
 16 27  1  0  0  0  0
 17 22  2  0  0  0  0
 17 23  1  0  0  0  0
 18 32  1  0  0  0  0
 19 24  2  0  0  0  0
 19 25  1  0  0  0  0
 21 34  1  0  0  0  0
 21 35  1  0  0  0  0
 21 36  1  0  0  0  0
 22 24  1  0  0  0  0
 22 37  1  0  0  0  0
 23 25  2  0  0  0  0
 23 38  1  0  0  0  0
 24 39  1  0  0  0  0
 25 40  1  0  0  0  0
 26 41  1  0  0  0  0
 26 42  1  0  0  0  0
 26 43  1  0  0  0  0
 28 30  1  0  0  0  0
 28 31  1  0  0  0  0
 28 44  1  0  0  0  0
 28 45  1  0  0  0  0
 31 46  1  0  0  0  0
 31 47  1  0  0  0  0
 31 48  1  0  0  0  0
M  CHG  1   9  -1
M  END
> <PUBCHEM_COMPOUND_CID>
5571260

> <PUBCHEM_COMPOUND_CANONICALIZED>
1

> <PUBCHEM_CACTVS_COMPLEXITY>
954

> <PUBCHEM_CACTVS_HBOND_ACCEPTOR>
10

> <PUBCHEM_CACTVS_HBOND_DONOR>
1

> <PUBCHEM_CACTVS_ROTATABLE_BOND>
6

> <PUBCHEM_CACTVS_SUBSKEYS>
AAADceB7uABgAAAAAAAAAAAAAAAAAWAAAAAwQAAAAAAAAAABwAAAHgQYQAAADAjB0gQz0YPAAAq+BiV2cHDyAJJhAhAciJk4ZMgIoDLgkZGEIAhgniDIyccQAAAAAAQAAAAAAAAACAAAAAAAAAAAAAAAAA==

> <PUBCHEM_IUPAC_OPENEYE_NAME>
[4-[[(Z)-(5-cyano-1,4-dimethyl-2,6-dioxo-3-pyridylidene)methyl]amino]phenyl]sulfonyl-(5-ethyl-1,3,4-thiadiazol-2-yl)azanide

> <PUBCHEM_IUPAC_CAS_NAME>
[4-[[(Z)-(5-cyano-1,4-dimethyl-2,6-dioxo-3-pyridinylidene)methyl]amino]phenyl]sulfonyl-(5-ethyl-1,3,4-thiadiazol-2-yl)azanide

> <PUBCHEM_IUPAC_NAME>
[4-[[(Z)-(5-cyano-1,4-dimethyl-2,6-dioxopyridin-3-ylidene)methyl]amino]phenyl]sulfonyl-(5-ethyl-1,3,4-thiadiazol-2-yl)azanide

> <PUBCHEM_IUPAC_SYSTEMATIC_NAME>
[4-[[(Z)-[5-cyano-1,4-dimethyl-2,6-bis(oxidanylidene)pyridin-3-ylidene]methyl]amino]phenyl]sulfonyl-(5-ethyl-1,3,4-thiadiazol-2-yl)azanide

> <PUBCHEM_IUPAC_TRADITIONAL_NAME>
[4-[[(Z)-(5-cyano-2,6-diketo-1,4-dimethyl-3-pyridylidene)methyl]amino]phenyl]sulfonyl-(5-ethyl-1,3,4-thiadiazol-2-yl)azanide

> <PUBCHEM_IUPAC_INCHI>
InChI=1S/C19H18N6O4S2/c1-4-16-22-23-19(30-16)24-31(28,29)13-7-5-12(6-8-13)21-10-15-11(2)14(9-20)17(26)25(3)18(15)27/h5-8,10H,4H2,1-3H3,(H2,21,23,24,26,27)/p-1

> <PUBCHEM_IUPAC_INCHIKEY>
SOXFGHVAVQAIGE-UHFFFAOYSA-M

> <PUBCHEM_XLOGP3>
1.1

> <PUBCHEM_EXACT_MASS>
457.07527

> <PUBCHEM_MOLECULAR_FORMULA>
C19H17N6O4S2-

> <PUBCHEM_MOLECULAR_WEIGHT>
457.50608

> <PUBCHEM_OPENEYE_CAN_SMILES>
CCC1=NN=C(S1)[N-]S(=O)(=O)C2=CC=C(C=C2)NC=C3C(=C(C(=O)N(C3=O)C)C#N)C

> <PUBCHEM_OPENEYE_ISO_SMILES>
CCC1=NN=C(S1)[N-]S(=O)(=O)C2=CC=C(C=C2)N/C=C\3/C(=C(C(=O)N(C3=O)C)C#N)C

> <PUBCHEM_CACTVS_TPSA>
171

> <PUBCHEM_MONOISOTOPIC_WEIGHT>
457.07527

> <PUBCHEM_TOTAL_CHARGE>
-1

> <PUBCHEM_HEAVY_ATOM_COUNT>
31

> <PUBCHEM_ATOM_DEF_STEREO_COUNT>
0

> <PUBCHEM_ATOM_UDEF_STEREO_COUNT>
0

> <PUBCHEM_BOND_DEF_STEREO_COUNT>
1

> <PUBCHEM_BOND_UDEF_STEREO_COUNT>
0

> <PUBCHEM_ISOTOPIC_ATOM_COUNT>
0

> <PUBCHEM_COMPONENT_COUNT>
1

> <PUBCHEM_CACTVS_TAUTO_COUNT>
5

> <PUBCHEM_COORDINATE_TYPE>
1
5
255

> <PUBCHEM_BONDANNOTATIONS>
10  11  8
10  29  8
11  30  8
17  22  8
17  23  8
19  24  8
19  25  8
2  29  8
2  30  8
22  24  8
23  25  8

$$$$
