43733059
  -OEChem-10191221582D

 31 32  0     0  0  0  0  0  0999 V2000
    2.8660   -1.5194    0.0000 N   0  0  0  0  0  0  0  0  0  0  0  0
    4.5981    1.4806    0.0000 N   0  0  0  0  0  0  0  0  0  0  0  0
    2.8660   -2.5194    0.0000 C   0  0  0  0  0  0  0  0  0  0  0  0
    3.7320   -1.0194    0.0000 C   0  0  0  0  0  0  0  0  0  0  0  0
    4.5981    0.4806    0.0000 C   0  0  0  0  0  0  0  0  0  0  0  0
    3.7320   -0.0194    0.0000 C   0  0  0  0  0  0  0  0  0  0  0  0
    2.0000   -3.0194    0.0000 C   0  0  0  0  0  0  0  0  0  0  0  0
    3.7320   -3.0194    0.0000 C   0  0  0  0  0  0  0  0  0  0  0  0
    4.5981   -1.5194    0.0000 C   0  0  0  0  0  0  0  0  0  0  0  0
    5.4641   -0.0194    0.0000 C   0  0  0  0  0  0  0  0  0  0  0  0
    5.4641   -1.0194    0.0000 C   0  0  0  0  0  0  0  0  0  0  0  0
    5.4071    2.0684    0.0000 C   0  0  0  0  0  0  0  0  0  0  0  0
    3.7891    2.0684    0.0000 C   0  0  0  0  0  0  0  0  0  0  0  0
    5.0981    3.0194    0.0000 C   0  0  0  0  0  0  0  0  0  0  0  0
    4.0981    3.0194    0.0000 C   0  0  0  0  0  0  0  0  0  0  0  0
    3.4030   -2.2094    0.0000 H   0  0  0  0  0  0  0  0  0  0  0  0
    2.3291   -1.2094    0.0000 H   0  0  0  0  0  0  0  0  0  0  0  0
    3.1951    0.2906    0.0000 H   0  0  0  0  0  0  0  0  0  0  0  0
    1.6900   -2.4825    0.0000 H   0  0  0  0  0  0  0  0  0  0  0  0
    1.4631   -3.3294    0.0000 H   0  0  0  0  0  0  0  0  0  0  0  0
    3.4220   -3.5564    0.0000 H   0  0  0  0  0  0  0  0  0  0  0  0
    4.2690   -3.3294    0.0000 H   0  0  0  0  0  0  0  0  0  0  0  0
    4.0420   -2.4825    0.0000 H   0  0  0  0  0  0  0  0  0  0  0  0
    2.3100   -3.5564    0.0000 H   0  0  0  0  0  0  0  0  0  0  0  0
    4.5981   -2.1394    0.0000 H   0  0  0  0  0  0  0  0  0  0  0  0
    6.0010    0.2906    0.0000 H   0  0  0  0  0  0  0  0  0  0  0  0
    6.0010   -1.3294    0.0000 H   0  0  0  0  0  0  0  0  0  0  0  0
    5.9967    1.8768    0.0000 H   0  0  0  0  0  0  0  0  0  0  0  0
    3.1994    1.8768    0.0000 H   0  0  0  0  0  0  0  0  0  0  0  0
    5.4625    3.5210    0.0000 H   0  0  0  0  0  0  0  0  0  0  0  0
    3.7336    3.5210    0.0000 H   0  0  0  0  0  0  0  0  0  0  0  0
  1  3  1  0  0  0  0
  1  4  1  0  0  0  0
  1 17  1  0  0  0  0
  2  5  1  0  0  0  0
  2 12  1  0  0  0  0
  2 13  1  0  0  0  0
  3  7  1  0  0  0  0
  3  8  1  0  0  0  0
  3 16  1  0  0  0  0
  4  6  2  0  0  0  0
  4  9  1  0  0  0  0
  5  6  1  0  0  0  0
  5 10  2  0  0  0  0
  6 18  1  0  0  0  0
  7 19  1  0  0  0  0
  7 20  1  0  0  0  0
  7 24  1  0  0  0  0
  8 21  1  0  0  0  0
  8 22  1  0  0  0  0
  8 23  1  0  0  0  0
  9 11  2  0  0  0  0
  9 25  1  0  0  0  0
 10 11  1  0  0  0  0
 10 26  1  0  0  0  0
 11 27  1  0  0  0  0
 12 14  2  0  0  0  0
 12 28  1  0  0  0  0
 13 15  2  0  0  0  0
 13 29  1  0  0  0  0
 14 15  1  0  0  0  0
 14 30  1  0  0  0  0
 15 31  1  0  0  0  0
M  END
> <PUBCHEM_COMPOUND_CID>
43733059

> <PUBCHEM_COMPOUND_CANONICALIZED>
1

> <PUBCHEM_CACTVS_COMPLEXITY>
185

> <PUBCHEM_CACTVS_HBOND_ACCEPTOR>
1

> <PUBCHEM_CACTVS_HBOND_DONOR>
1

> <PUBCHEM_CACTVS_ROTATABLE_BOND>
3

> <PUBCHEM_CACTVS_SUBSKEYS>
AAADceBzAAAAAAAAAAAAAAAAAAAAAWAAAAAwAAAAAAAAAAABwAAAHAAQAAAACCjBEgQ+wJPMEACgADRnRACCgCAxAiAI2KA4ZJgIIOLA0dGEIAhgkADIyAcQAAAAAAAAAAQAAAAAAAAACAAAAAAAAAAAAA==

> <PUBCHEM_IUPAC_OPENEYE_NAME>
N-isopropyl-3-pyrrol-1-yl-aniline

> <PUBCHEM_IUPAC_CAS_NAME>
N-propan-2-yl-3-(1-pyrrolyl)aniline

> <PUBCHEM_IUPAC_NAME>
N-propan-2-yl-3-pyrrol-1-ylaniline

> <PUBCHEM_IUPAC_SYSTEMATIC_NAME>
N-propan-2-yl-3-pyrrol-1-yl-aniline

> <PUBCHEM_IUPAC_TRADITIONAL_NAME>
isopropyl-(3-pyrrol-1-ylphenyl)amine

> <PUBCHEM_IUPAC_INCHI>
InChI=1S/C13H16N2/c1-11(2)14-12-6-5-7-13(10-12)15-8-3-4-9-15/h3-11,14H,1-2H3

> <PUBCHEM_IUPAC_INCHIKEY>
POXFJTRKOXPYHW-UHFFFAOYSA-N

> <PUBCHEM_XLOGP3>
3.9

> <PUBCHEM_EXACT_MASS>
200.131349

> <PUBCHEM_MOLECULAR_FORMULA>
C13H16N2

> <PUBCHEM_MOLECULAR_WEIGHT>
200.27954

> <PUBCHEM_OPENEYE_CAN_SMILES>
CC(C)NC1=CC=CC(=C1)N2C=CC=C2

> <PUBCHEM_OPENEYE_ISO_SMILES>
CC(C)NC1=CC=CC(=C1)N2C=CC=C2

> <PUBCHEM_CACTVS_TPSA>
17

> <PUBCHEM_MONOISOTOPIC_WEIGHT>
200.131349

> <PUBCHEM_TOTAL_CHARGE>
0

> <PUBCHEM_HEAVY_ATOM_COUNT>
15

> <PUBCHEM_ATOM_DEF_STEREO_COUNT>
0

> <PUBCHEM_ATOM_UDEF_STEREO_COUNT>
0

> <PUBCHEM_BOND_DEF_STEREO_COUNT>
0

> <PUBCHEM_BOND_UDEF_STEREO_COUNT>
0

> <PUBCHEM_ISOTOPIC_ATOM_COUNT>
0

> <PUBCHEM_COMPONENT_COUNT>
1

> <PUBCHEM_CACTVS_TAUTO_COUNT>
1

> <PUBCHEM_COORDINATE_TYPE>
1
5
255

> <PUBCHEM_BONDANNOTATIONS>
10  11  8
12  14  8
13  15  8
14  15  8
2  12  8
2  13  8
4  6  8
4  9  8
5  10  8
5  6  8
9  11  8

$$$$
43733073
  -OEChem-10191221582D

 28 29  0     0  0  0  0  0  0999 V2000
    4.5981    1.4806    0.0000 N   0  0  0  0  0  0  0  0  0  0  0  0
    2.8660   -1.5194    0.0000 N   0  0  0  0  0  0  0  0  0  0  0  0
    4.5981    0.4806    0.0000 C   0  0  0  0  0  0  0  0  0  0  0  0
    3.7320   -1.0194    0.0000 C   0  0  0  0  0  0  0  0  0  0  0  0
    3.7320   -0.0194    0.0000 C   0  0  0  0  0  0  0  0  0  0  0  0
    5.4641   -0.0194    0.0000 C   0  0  0  0  0  0  0  0  0  0  0  0
    4.5981   -1.5194    0.0000 C   0  0  0  0  0  0  0  0  0  0  0  0
    2.8660   -2.5194    0.0000 C   0  0  0  0  0  0  0  0  0  0  0  0
    5.4641   -1.0194    0.0000 C   0  0  0  0  0  0  0  0  0  0  0  0
    3.7891    2.0684    0.0000 C   0  0  0  0  0  0  0  0  0  0  0  0
    5.4071    2.0684    0.0000 C   0  0  0  0  0  0  0  0  0  0  0  0
    4.0981    3.0194    0.0000 C   0  0  0  0  0  0  0  0  0  0  0  0
    5.0981    3.0194    0.0000 C   0  0  0  0  0  0  0  0  0  0  0  0
    2.0000   -3.0194    0.0000 C   0  0  0  0  0  0  0  0  0  0  0  0
    3.1951    0.2906    0.0000 H   0  0  0  0  0  0  0  0  0  0  0  0
    6.0010    0.2906    0.0000 H   0  0  0  0  0  0  0  0  0  0  0  0
    2.3291   -1.2094    0.0000 H   0  0  0  0  0  0  0  0  0  0  0  0
    4.5981   -2.1394    0.0000 H   0  0  0  0  0  0  0  0  0  0  0  0
    3.0781   -3.1020    0.0000 H   0  0  0  0  0  0  0  0  0  0  0  0
    3.4766   -2.4118    0.0000 H   0  0  0  0  0  0  0  0  0  0  0  0
    6.0010   -1.3294    0.0000 H   0  0  0  0  0  0  0  0  0  0  0  0
    3.1994    1.8768    0.0000 H   0  0  0  0  0  0  0  0  0  0  0  0
    5.9967    1.8768    0.0000 H   0  0  0  0  0  0  0  0  0  0  0  0
    3.7336    3.5210    0.0000 H   0  0  0  0  0  0  0  0  0  0  0  0
    5.4625    3.5210    0.0000 H   0  0  0  0  0  0  0  0  0  0  0  0
    1.6900   -2.4825    0.0000 H   0  0  0  0  0  0  0  0  0  0  0  0
    1.4631   -3.3294    0.0000 H   0  0  0  0  0  0  0  0  0  0  0  0
    2.3100   -3.5564    0.0000 H   0  0  0  0  0  0  0  0  0  0  0  0
  1  3  1  0  0  0  0
  1 10  1  0  0  0  0
  1 11  1  0  0  0  0
  2  4  1  0  0  0  0
  2  8  1  0  0  0  0
  2 17  1  0  0  0  0
  3  5  1  0  0  0  0
  3  6  2  0  0  0  0
  4  5  2  0  0  0  0
  4  7  1  0  0  0  0
  5 15  1  0  0  0  0
  6  9  1  0  0  0  0
  6 16  1  0  0  0  0
  7  9  2  0  0  0  0
  7 18  1  0  0  0  0
  8 14  1  0  0  0  0
  8 19  1  0  0  0  0
  8 20  1  0  0  0  0
  9 21  1  0  0  0  0
 10 12  2  0  0  0  0
 10 22  1  0  0  0  0
 11 13  2  0  0  0  0
 11 23  1  0  0  0  0
 12 13  1  0  0  0  0
 12 24  1  0  0  0  0
 13 25  1  0  0  0  0
 14 26  1  0  0  0  0
 14 27  1  0  0  0  0
 14 28  1  0  0  0  0
M  END
> <PUBCHEM_COMPOUND_CID>
43733073

> <PUBCHEM_COMPOUND_CANONICALIZED>
1

> <PUBCHEM_CACTVS_COMPLEXITY>
164

> <PUBCHEM_CACTVS_HBOND_ACCEPTOR>
1

> <PUBCHEM_CACTVS_HBOND_DONOR>
1

> <PUBCHEM_CACTVS_ROTATABLE_BOND>
3

> <PUBCHEM_CACTVS_SUBSKEYS>
AAADccBzAAAAAAAAAAAAAAAAAAAAAWAAAAAwAAAAAAAAAAABwAAAHAAQAAAACAjBEgQ+wJPMEACgADRnRACCgCAxAiAI2KA4ZJgIIOLA0dGEIAhgkADIyAcQAAAAAAAAAAQAAAAAAAAACAAAAAAAAAAAAA==

> <PUBCHEM_IUPAC_OPENEYE_NAME>
N-ethyl-3-pyrrol-1-yl-aniline

> <PUBCHEM_IUPAC_CAS_NAME>
N-ethyl-3-(1-pyrrolyl)aniline

> <PUBCHEM_IUPAC_NAME>
N-ethyl-3-pyrrol-1-ylaniline

> <PUBCHEM_IUPAC_SYSTEMATIC_NAME>
N-ethyl-3-pyrrol-1-yl-aniline

> <PUBCHEM_IUPAC_TRADITIONAL_NAME>
ethyl-(3-pyrrol-1-ylphenyl)amine

> <PUBCHEM_IUPAC_INCHI>
InChI=1S/C12H14N2/c1-2-13-11-6-5-7-12(10-11)14-8-3-4-9-14/h3-10,13H,2H2,1H3

> <PUBCHEM_IUPAC_INCHIKEY>
FWVRYWZRFYUCEU-UHFFFAOYSA-N

> <PUBCHEM_XLOGP3>
3.4

> <PUBCHEM_EXACT_MASS>
186.115698

> <PUBCHEM_MOLECULAR_FORMULA>
C12H14N2

> <PUBCHEM_MOLECULAR_WEIGHT>
186.25296

> <PUBCHEM_OPENEYE_CAN_SMILES>
CCNC1=CC=CC(=C1)N2C=CC=C2

> <PUBCHEM_OPENEYE_ISO_SMILES>
CCNC1=CC=CC(=C1)N2C=CC=C2

> <PUBCHEM_CACTVS_TPSA>
17

> <PUBCHEM_MONOISOTOPIC_WEIGHT>
186.115698

> <PUBCHEM_TOTAL_CHARGE>
0

> <PUBCHEM_HEAVY_ATOM_COUNT>
14

> <PUBCHEM_ATOM_DEF_STEREO_COUNT>
0

> <PUBCHEM_ATOM_UDEF_STEREO_COUNT>
0

> <PUBCHEM_BOND_DEF_STEREO_COUNT>
0

> <PUBCHEM_BOND_UDEF_STEREO_COUNT>
0

> <PUBCHEM_ISOTOPIC_ATOM_COUNT>
0

> <PUBCHEM_COMPONENT_COUNT>
1

> <PUBCHEM_CACTVS_TAUTO_COUNT>
1

> <PUBCHEM_COORDINATE_TYPE>
1
5
255

> <PUBCHEM_BONDANNOTATIONS>
1  10  8
1  11  8
10  12  8
11  13  8
12  13  8
3  5  8
3  6  8
4  5  8
4  7  8
6  9  8
7  9  8

$$$$
