29051407
  -OEChem-03221309332D

 34 36  0     1  0  0  0  0  0999 V2000
    2.0000   -1.9470    0.0000 Cl  0  0  0  0  0  0  0  0  0  0  0  0
    6.3301   -0.4470    0.0000 N   0  0  0  0  0  0  0  0  0  0  0  0
    9.8744    1.3577    0.0000 N   0  0  0  0  0  0  0  0  0  0  0  0
    5.4641    0.0530    0.0000 C   0  0  2  0  0  0  0  0  0  0  0  0
    7.1962    0.0530    0.0000 C   0  0  0  0  0  0  0  0  0  0  0  0
    4.5981   -0.4470    0.0000 C   0  0  0  0  0  0  0  0  0  0  0  0
    8.9282    0.0530    0.0000 C   0  0  0  0  0  0  0  0  0  0  0  0
    8.9282    1.0530    0.0000 C   0  0  0  0  0  0  0  0  0  0  0  0
    5.4641    1.0530    0.0000 C   0  0  0  0  0  0  0  0  0  0  0  0
    8.0622   -0.4470    0.0000 C   0  0  0  0  0  0  0  0  0  0  0  0
    7.1962    1.0530    0.0000 C   0  0  0  0  0  0  0  0  0  0  0  0
    8.0622    1.5530    0.0000 C   0  0  0  0  0  0  0  0  0  0  0  0
    9.8744   -0.2518    0.0000 C   0  0  0  0  0  0  0  0  0  0  0  0
    3.7320    0.0530    0.0000 C   0  0  0  0  0  0  0  0  0  0  0  0
    4.5981   -1.4470    0.0000 C   0  0  0  0  0  0  0  0  0  0  0  0
   10.4580    0.5530    0.0000 C   0  0  0  0  0  0  0  0  0  0  0  0
    2.8660   -0.4470    0.0000 C   0  0  0  0  0  0  0  0  0  0  0  0
    3.7320   -1.9470    0.0000 C   0  0  0  0  0  0  0  0  0  0  0  0
    2.8660   -1.4470    0.0000 C   0  0  0  0  0  0  0  0  0  0  0  0
    5.4641   -0.5670    0.0000 H   0  0  0  0  0  0  0  0  0  0  0  0
    6.3301   -1.0670    0.0000 H   0  0  0  0  0  0  0  0  0  0  0  0
    6.0841    1.0530    0.0000 H   0  0  0  0  0  0  0  0  0  0  0  0
    5.4641    1.6730    0.0000 H   0  0  0  0  0  0  0  0  0  0  0  0
    4.8441    1.0530    0.0000 H   0  0  0  0  0  0  0  0  0  0  0  0
    8.0622   -1.0670    0.0000 H   0  0  0  0  0  0  0  0  0  0  0  0
    6.6592    1.3630    0.0000 H   0  0  0  0  0  0  0  0  0  0  0  0
    8.0622    2.1730    0.0000 H   0  0  0  0  0  0  0  0  0  0  0  0
   10.0670   -0.8411    0.0000 H   0  0  0  0  0  0  0  0  0  0  0  0
    3.7320    0.6730    0.0000 H   0  0  0  0  0  0  0  0  0  0  0  0
    5.1350   -1.7570    0.0000 H   0  0  0  0  0  0  0  0  0  0  0  0
   10.0670    1.9470    0.0000 H   0  0  0  0  0  0  0  0  0  0  0  0
   11.0780    0.5530    0.0000 H   0  0  0  0  0  0  0  0  0  0  0  0
    2.3291   -0.1370    0.0000 H   0  0  0  0  0  0  0  0  0  0  0  0
    3.7320   -2.5670    0.0000 H   0  0  0  0  0  0  0  0  0  0  0  0
  1 19  1  0  0  0  0
  4  2  1  6  0  0  0
  2  5  1  0  0  0  0
  2 21  1  0  0  0  0
  3  8  1  0  0  0  0
  3 16  1  0  0  0  0
  3 31  1  0  0  0  0
  4  6  1  0  0  0  0
  4  9  1  0  0  0  0
  4 20  1  0  0  0  0
  5 10  2  0  0  0  0
  5 11  1  0  0  0  0
  6 14  2  0  0  0  0
  6 15  1  0  0  0  0
  7  8  2  0  0  0  0
  7 10  1  0  0  0  0
  7 13  1  0  0  0  0
  8 12  1  0  0  0  0
  9 22  1  0  0  0  0
  9 23  1  0  0  0  0
  9 24  1  0  0  0  0
 10 25  1  0  0  0  0
 11 12  2  0  0  0  0
 11 26  1  0  0  0  0
 12 27  1  0  0  0  0
 13 16  2  0  0  0  0
 13 28  1  0  0  0  0
 14 17  1  0  0  0  0
 14 29  1  0  0  0  0
 15 18  2  0  0  0  0
 15 30  1  0  0  0  0
 16 32  1  0  0  0  0
 17 19  2  0  0  0  0
 17 33  1  0  0  0  0
 18 19  1  0  0  0  0
 18 34  1  0  0  0  0
M  END
> <PUBCHEM_COMPOUND_CID>
29051407

> <PUBCHEM_COMPOUND_CANONICALIZED>
1

> <PUBCHEM_CACTVS_COMPLEXITY>
289

> <PUBCHEM_CACTVS_HBOND_ACCEPTOR>
1

> <PUBCHEM_CACTVS_HBOND_DONOR>
2

> <PUBCHEM_CACTVS_ROTATABLE_BOND>
3

> <PUBCHEM_CACTVS_SUBSKEYS>
AAADccB7AAAEAAAAAAAAAAAAAAAAAWAAAAAwYAAAAAAAAFgB9AAAHAIQAAAADCrBHiQ+wPLJkACgAzRnRACCgCAxByAI2aA4ZpgIIOLBk5GEIAhgkADIyAcQgIAOBACAQAACAAAIAQCAAAQAAAAAAAAAAA==

> <PUBCHEM_IUPAC_OPENEYE_NAME>
N-[(1S)-1-(4-chlorophenyl)ethyl]-1H-indol-5-amine

> <PUBCHEM_IUPAC_CAS_NAME>
N-[(1S)-1-(4-chlorophenyl)ethyl]-1H-indol-5-amine

> <PUBCHEM_IUPAC_NAME>
N-[(1S)-1-(4-chlorophenyl)ethyl]-1H-indol-5-amine

> <PUBCHEM_IUPAC_SYSTEMATIC_NAME>
N-[(1S)-1-(4-chlorophenyl)ethyl]-1H-indol-5-amine

> <PUBCHEM_IUPAC_TRADITIONAL_NAME>
[(1S)-1-(4-chlorophenyl)ethyl]-(1H-indol-5-yl)amine

> <PUBCHEM_IUPAC_INCHI>
InChI=1S/C16H15ClN2/c1-11(12-2-4-14(17)5-3-12)19-15-6-7-16-13(10-15)8-9-18-16/h2-11,18-19H,1H3/t11-/m0/s1

> <PUBCHEM_IUPAC_INCHIKEY>
XYTNPINDHGFCFU-NSHDSACASA-N

> <PUBCHEM_XLOGP3>
4.8

> <PUBCHEM_EXACT_MASS>
270.092376

> <PUBCHEM_MOLECULAR_FORMULA>
C16H15ClN2

> <PUBCHEM_MOLECULAR_WEIGHT>
270.7567

> <PUBCHEM_OPENEYE_CAN_SMILES>
CC(C1=CC=C(C=C1)Cl)NC2=CC3=C(C=C2)NC=C3

> <PUBCHEM_OPENEYE_ISO_SMILES>
C[C@@H](C1=CC=C(C=C1)Cl)NC2=CC3=C(C=C2)NC=C3

> <PUBCHEM_CACTVS_TPSA>
27.8

> <PUBCHEM_MONOISOTOPIC_WEIGHT>
270.092376

> <PUBCHEM_TOTAL_CHARGE>
0

> <PUBCHEM_HEAVY_ATOM_COUNT>
19

> <PUBCHEM_ATOM_DEF_STEREO_COUNT>
1

> <PUBCHEM_ATOM_UDEF_STEREO_COUNT>
0

> <PUBCHEM_BOND_DEF_STEREO_COUNT>
0

> <PUBCHEM_BOND_UDEF_STEREO_COUNT>
0

> <PUBCHEM_ISOTOPIC_ATOM_COUNT>
0

> <PUBCHEM_COMPONENT_COUNT>
1

> <PUBCHEM_CACTVS_TAUTO_COUNT>
1

> <PUBCHEM_COORDINATE_TYPE>
1
5
255

> <PUBCHEM_BONDANNOTATIONS>
11  12  8
13  16  8
14  17  8
15  18  8
17  19  8
18  19  8
4  2  6
3  16  8
3  8  8
5  10  8
5  11  8
6  14  8
6  15  8
7  10  8
7  13  8
7  8  8
8  12  8

$$$$
29051566
  -OEChem-03221309332D

 34 36  0     0  0  0  0  0  0999 V2000
    2.0000   -0.4330    0.0000 Cl  0  0  0  0  0  0  0  0  0  0  0  0
    3.7320   -3.4330    0.0000 Cl  0  0  0  0  0  0  0  0  0  0  0  0
    4.5981    1.0670    0.0000 N   0  0  0  0  0  0  0  0  0  0  0  0
    5.4641    2.5670    0.0000 C   0  0  0  0  0  0  0  0  0  0  0  0
    3.7320    2.5670    0.0000 C   0  0  0  0  0  0  0  0  0  0  0  0
    4.5981    2.0670    0.0000 C   0  0  0  0  0  0  0  0  0  0  0  0
    6.4641    2.5670    0.0000 C   0  0  0  0  0  0  0  0  0  0  0  0
    5.9641    3.4330    0.0000 C   0  0  0  0  0  0  0  0  0  0  0  0
    3.2320    3.4330    0.0000 C   0  0  0  0  0  0  0  0  0  0  0  0
    2.7320    2.5670    0.0000 C   0  0  0  0  0  0  0  0  0  0  0  0
    3.7320    0.5670    0.0000 C   0  0  0  0  0  0  0  0  0  0  0  0
    3.7320   -0.4330    0.0000 C   0  0  0  0  0  0  0  0  0  0  0  0
    2.8660   -0.9330    0.0000 C   0  0  0  0  0  0  0  0  0  0  0  0
    4.5981   -0.9330    0.0000 C   0  0  0  0  0  0  0  0  0  0  0  0
    2.8660   -1.9330    0.0000 C   0  0  0  0  0  0  0  0  0  0  0  0
    4.5981   -1.9330    0.0000 C   0  0  0  0  0  0  0  0  0  0  0  0
    3.7320   -2.4330    0.0000 C   0  0  0  0  0  0  0  0  0  0  0  0
    5.6246    1.9681    0.0000 H   0  0  0  0  0  0  0  0  0  0  0  0
    3.5716    1.9681    0.0000 H   0  0  0  0  0  0  0  0  0  0  0  0
    5.1350    1.7570    0.0000 H   0  0  0  0  0  0  0  0  0  0  0  0
    6.5718    1.9564    0.0000 H   0  0  0  0  0  0  0  0  0  0  0  0
    7.0467    2.7790    0.0000 H   0  0  0  0  0  0  0  0  0  0  0  0
    6.4390    3.8315    0.0000 H   0  0  0  0  0  0  0  0  0  0  0  0
    5.4892    3.8315    0.0000 H   0  0  0  0  0  0  0  0  0  0  0  0
    3.7070    3.8315    0.0000 H   0  0  0  0  0  0  0  0  0  0  0  0
    2.7571    3.8315    0.0000 H   0  0  0  0  0  0  0  0  0  0  0  0
    2.1494    2.7790    0.0000 H   0  0  0  0  0  0  0  0  0  0  0  0
    2.6244    1.9564    0.0000 H   0  0  0  0  0  0  0  0  0  0  0  0
    5.1350    0.7570    0.0000 H   0  0  0  0  0  0  0  0  0  0  0  0
    3.5200    1.1496    0.0000 H   0  0  0  0  0  0  0  0  0  0  0  0
    3.1215    0.4593    0.0000 H   0  0  0  0  0  0  0  0  0  0  0  0
    5.1350   -0.6230    0.0000 H   0  0  0  0  0  0  0  0  0  0  0  0
    2.3291   -2.2430    0.0000 H   0  0  0  0  0  0  0  0  0  0  0  0
    5.1350   -2.2430    0.0000 H   0  0  0  0  0  0  0  0  0  0  0  0
  1 13  1  0  0  0  0
  2 17  1  0  0  0  0
  3  6  1  0  0  0  0
  3 11  1  0  0  0  0
  3 29  1  0  0  0  0
  4  6  1  0  0  0  0
  4  7  1  0  0  0  0
  4  8  1  0  0  0  0
  4 18  1  0  0  0  0
  5  6  1  0  0  0  0
  5  9  1  0  0  0  0
  5 10  1  0  0  0  0
  5 19  1  0  0  0  0
  6 20  1  0  0  0  0
  7  8  1  0  0  0  0
  7 21  1  0  0  0  0
  7 22  1  0  0  0  0
  8 23  1  0  0  0  0
  8 24  1  0  0  0  0
  9 10  1  0  0  0  0
  9 25  1  0  0  0  0
  9 26  1  0  0  0  0
 10 27  1  0  0  0  0
 10 28  1  0  0  0  0
 11 12  1  0  0  0  0
 11 30  1  0  0  0  0
 11 31  1  0  0  0  0
 12 13  2  0  0  0  0
 12 14  1  0  0  0  0
 13 15  1  0  0  0  0
 14 16  2  0  0  0  0
 14 32  1  0  0  0  0
 15 17  2  0  0  0  0
 15 33  1  0  0  0  0
 16 17  1  0  0  0  0
 16 34  1  0  0  0  0
M  END
> <PUBCHEM_COMPOUND_CID>
29051566

> <PUBCHEM_COMPOUND_CANONICALIZED>
1

> <PUBCHEM_CACTVS_COMPLEXITY>
251

> <PUBCHEM_CACTVS_HBOND_ACCEPTOR>
1

> <PUBCHEM_CACTVS_HBOND_DONOR>
1

> <PUBCHEM_CACTVS_ROTATABLE_BOND>
5

> <PUBCHEM_CACTVS_SUBSKEYS>
AAADceByAAAGAAAAAAAAAAAAGDAAAAAAAAAwAAAAAAAAAAABAAAAHAIQAAAADSrBGCQwAILAAACAAiBCAACCAAAgBQAIiIAIBogIICKBkxGEIAhgkACIiAcQgAAOBAAAAACBAAAIAAAAAQIAAAAAAAAAAA==

> <PUBCHEM_IUPAC_OPENEYE_NAME>
1,1-dicyclopropyl-N-[(2,4-dichlorophenyl)methyl]methanamine

> <PUBCHEM_IUPAC_CAS_NAME>
1,1-dicyclopropyl-N-[(2,4-dichlorophenyl)methyl]methanamine

> <PUBCHEM_IUPAC_NAME>
1,1-dicyclopropyl-N-[(2,4-dichlorophenyl)methyl]methanamine

> <PUBCHEM_IUPAC_SYSTEMATIC_NAME>
1,1-dicyclopropyl-N-[(2,4-dichlorophenyl)methyl]methanamine

> <PUBCHEM_IUPAC_TRADITIONAL_NAME>
(2,4-dichlorobenzyl)-(dicyclopropylmethyl)amine

> <PUBCHEM_IUPAC_INCHI>
InChI=1S/C14H17Cl2N/c15-12-6-5-11(13(16)7-12)8-17-14(9-1-2-9)10-3-4-10/h5-7,9-10,14,17H,1-4,8H2

> <PUBCHEM_IUPAC_INCHIKEY>
CIJJDLFCZBUWMD-UHFFFAOYSA-N

> <PUBCHEM_XLOGP3>
4.4

> <PUBCHEM_EXACT_MASS>
269.073805

> <PUBCHEM_MOLECULAR_FORMULA>
C14H17Cl2N

> <PUBCHEM_MOLECULAR_WEIGHT>
270.19748

> <PUBCHEM_OPENEYE_CAN_SMILES>
C1CC1C(C2CC2)NCC3=C(C=C(C=C3)Cl)Cl

> <PUBCHEM_OPENEYE_ISO_SMILES>
C1CC1C(C2CC2)NCC3=C(C=C(C=C3)Cl)Cl

> <PUBCHEM_CACTVS_TPSA>
12

> <PUBCHEM_MONOISOTOPIC_WEIGHT>
269.073805

> <PUBCHEM_TOTAL_CHARGE>
0

> <PUBCHEM_HEAVY_ATOM_COUNT>
17

> <PUBCHEM_ATOM_DEF_STEREO_COUNT>
0

> <PUBCHEM_ATOM_UDEF_STEREO_COUNT>
0

> <PUBCHEM_BOND_DEF_STEREO_COUNT>
0

> <PUBCHEM_BOND_UDEF_STEREO_COUNT>
0

> <PUBCHEM_ISOTOPIC_ATOM_COUNT>
0

> <PUBCHEM_COMPONENT_COUNT>
1

> <PUBCHEM_CACTVS_TAUTO_COUNT>
1

> <PUBCHEM_COORDINATE_TYPE>
1
5
255

> <PUBCHEM_BONDANNOTATIONS>
12  13  8
12  14  8
13  15  8
14  16  8
15  17  8
16  17  8

$$$$
29052077
  -OEChem-03221309332D

 29 30  0     0  0  0  0  0  0999 V2000
    2.0000   -3.2500    0.0000 Br  0  0  0  0  0  0  0  0  0  0  0  0
    3.7320   -0.2500    0.0000 O   0  0  0  0  0  0  0  0  0  0  0  0
    4.5981    1.2500    0.0000 C   0  0  0  0  0  0  0  0  0  0  0  0
    5.4641    1.7500    0.0000 C   0  0  0  0  0  0  0  0  0  0  0  0
    4.5981    0.2500    0.0000 C   0  0  0  0  0  0  0  0  0  0  0  0
    6.3301    1.2500    0.0000 C   0  0  0  0  0  0  0  0  0  0  0  0
    5.4641    2.7500    0.0000 C   0  0  0  0  0  0  0  0  0  0  0  0
    3.7320   -1.2500    0.0000 C   0  0  0  0  0  0  0  0  0  0  0  0
    7.1962    1.7500    0.0000 C   0  0  0  0  0  0  0  0  0  0  0  0
    6.3301    3.2500    0.0000 C   0  0  0  0  0  0  0  0  0  0  0  0
    7.1962    2.7500    0.0000 C   0  0  0  0  0  0  0  0  0  0  0  0
    2.8660   -1.7500    0.0000 C   0  0  0  0  0  0  0  0  0  0  0  0
    4.5981   -1.7500    0.0000 C   0  0  0  0  0  0  0  0  0  0  0  0
    2.8660   -2.7500    0.0000 C   0  0  0  0  0  0  0  0  0  0  0  0
    4.5981   -2.7500    0.0000 C   0  0  0  0  0  0  0  0  0  0  0  0
    3.7320   -3.2500    0.0000 C   0  0  0  0  0  0  0  0  0  0  0  0
    4.3860    1.8326    0.0000 H   0  0  0  0  0  0  0  0  0  0  0  0
    3.9875    1.1423    0.0000 H   0  0  0  0  0  0  0  0  0  0  0  0
    4.8101   -0.3326    0.0000 H   0  0  0  0  0  0  0  0  0  0  0  0
    5.2087    0.3577    0.0000 H   0  0  0  0  0  0  0  0  0  0  0  0
    6.3301    0.6300    0.0000 H   0  0  0  0  0  0  0  0  0  0  0  0
    4.9272    3.0600    0.0000 H   0  0  0  0  0  0  0  0  0  0  0  0
    7.7331    1.4400    0.0000 H   0  0  0  0  0  0  0  0  0  0  0  0
    6.3301    3.8700    0.0000 H   0  0  0  0  0  0  0  0  0  0  0  0
    7.7331    3.0600    0.0000 H   0  0  0  0  0  0  0  0  0  0  0  0
    2.3291   -1.4400    0.0000 H   0  0  0  0  0  0  0  0  0  0  0  0
    5.1350   -1.4400    0.0000 H   0  0  0  0  0  0  0  0  0  0  0  0
    5.1350   -3.0600    0.0000 H   0  0  0  0  0  0  0  0  0  0  0  0
    3.7320   -3.8700    0.0000 H   0  0  0  0  0  0  0  0  0  0  0  0
  1 14  1  0  0  0  0
  2  5  1  0  0  0  0
  2  8  1  0  0  0  0
  3  4  1  0  0  0  0
  3  5  1  0  0  0  0
  3 17  1  0  0  0  0
  3 18  1  0  0  0  0
  4  6  2  0  0  0  0
  4  7  1  0  0  0  0
  5 19  1  0  0  0  0
  5 20  1  0  0  0  0
  6  9  1  0  0  0  0
  6 21  1  0  0  0  0
  7 10  2  0  0  0  0
  7 22  1  0  0  0  0
  8 12  2  0  0  0  0
  8 13  1  0  0  0  0
  9 11  2  0  0  0  0
  9 23  1  0  0  0  0
 10 11  1  0  0  0  0
 10 24  1  0  0  0  0
 11 25  1  0  0  0  0
 12 14  1  0  0  0  0
 12 26  1  0  0  0  0
 13 15  2  0  0  0  0
 13 27  1  0  0  0  0
 14 16  2  0  0  0  0
 15 16  1  0  0  0  0
 15 28  1  0  0  0  0
 16 29  1  0  0  0  0
M  END
> <PUBCHEM_COMPOUND_CID>
29052077

> <PUBCHEM_COMPOUND_CANONICALIZED>
1

> <PUBCHEM_CACTVS_COMPLEXITY>
189

> <PUBCHEM_CACTVS_HBOND_ACCEPTOR>
1

> <PUBCHEM_CACTVS_HBOND_DONOR>
0

> <PUBCHEM_CACTVS_ROTATABLE_BOND>
4

> <PUBCHEM_CACTVS_SUBSKEYS>
AAADccBwIAAAEAAAAAAAAAAAAAAAAAAAAAAwYAAAAAAAAAABQAAAGgBAAAABrASgmAIwBoAABACAAiBCAAACCAAgIAQIiAAGCKgMJiKEMRqCOCCkwBEIqheAwKAOAAAAAIAAAAAAAAABAAAAAAAAAAAAAA==

> <PUBCHEM_IUPAC_OPENEYE_NAME>
1-bromo-3-(2-phenylethoxy)benzene

> <PUBCHEM_IUPAC_CAS_NAME>
1-bromo-3-(2-phenylethoxy)benzene

> <PUBCHEM_IUPAC_NAME>
1-bromo-3-(2-phenylethoxy)benzene

> <PUBCHEM_IUPAC_SYSTEMATIC_NAME>
1-bromanyl-3-(2-phenylethoxy)benzene

> <PUBCHEM_IUPAC_TRADITIONAL_NAME>
1-bromo-3-phenethoxy-benzene

> <PUBCHEM_IUPAC_INCHI>
InChI=1S/C14H13BrO/c15-13-7-4-8-14(11-13)16-10-9-12-5-2-1-3-6-12/h1-8,11H,9-10H2

> <PUBCHEM_IUPAC_INCHIKEY>
RAZNQSVQYCRIAT-UHFFFAOYSA-N

> <PUBCHEM_XLOGP3>
4.9

> <PUBCHEM_EXACT_MASS>
276.014977

> <PUBCHEM_MOLECULAR_FORMULA>
C14H13BrO

> <PUBCHEM_MOLECULAR_WEIGHT>
277.15642

> <PUBCHEM_OPENEYE_CAN_SMILES>
C1=CC=C(C=C1)CCOC2=CC(=CC=C2)Br

> <PUBCHEM_OPENEYE_ISO_SMILES>
C1=CC=C(C=C1)CCOC2=CC(=CC=C2)Br

> <PUBCHEM_CACTVS_TPSA>
9.2

> <PUBCHEM_MONOISOTOPIC_WEIGHT>
276.014977

> <PUBCHEM_TOTAL_CHARGE>
0

> <PUBCHEM_HEAVY_ATOM_COUNT>
16

> <PUBCHEM_ATOM_DEF_STEREO_COUNT>
0

> <PUBCHEM_ATOM_UDEF_STEREO_COUNT>
0

> <PUBCHEM_BOND_DEF_STEREO_COUNT>
0

> <PUBCHEM_BOND_UDEF_STEREO_COUNT>
0

> <PUBCHEM_ISOTOPIC_ATOM_COUNT>
0

> <PUBCHEM_COMPONENT_COUNT>
1

> <PUBCHEM_CACTVS_TAUTO_COUNT>
1

> <PUBCHEM_COORDINATE_TYPE>
1
5
255

> <PUBCHEM_BONDANNOTATIONS>
10  11  8
12  14  8
13  15  8
14  16  8
15  16  8
4  6  8
4  7  8
6  9  8
7  10  8
8  12  8
8  13  8
9  11  8

$$$$
29052790
  -OEChem-03221309332D

 32 33  0     0  0  0  0  0  0999 V2000
    2.0000   -1.7500    0.0000 Cl  0  0  0  0  0  0  0  0  0  0  0  0
    4.5981   -0.2500    0.0000 O   0  0  0  0  0  0  0  0  0  0  0  0
    5.4641    1.2500    0.0000 C   0  0  0  0  0  0  0  0  0  0  0  0
    5.4641    0.2500    0.0000 C   0  0  0  0  0  0  0  0  0  0  0  0
    4.5981   -1.2500    0.0000 C   0  0  0  0  0  0  0  0  0  0  0  0
    6.3301    1.7500    0.0000 C   0  0  0  0  0  0  0  0  0  0  0  0
    6.3301    2.7500    0.0000 C   0  0  0  0  0  0  0  0  0  0  0  0
    3.7320   -1.7500    0.0000 C   0  0  0  0  0  0  0  0  0  0  0  0
    4.5981    1.7500    0.0000 C   0  0  0  0  0  0  0  0  0  0  0  0
    5.4641    3.2500    0.0000 C   0  0  0  0  0  0  0  0  0  0  0  0
    4.5981    2.7500    0.0000 C   0  0  0  0  0  0  0  0  0  0  0  0
    5.4641   -1.7500    0.0000 C   0  0  0  0  0  0  0  0  0  0  0  0
    3.7320   -2.7500    0.0000 C   0  0  0  0  0  0  0  0  0  0  0  0
    2.8660   -1.2500    0.0000 C   0  0  0  0  0  0  0  0  0  0  0  0
    7.1962    3.2500    0.0000 C   0  0  0  0  0  0  0  0  0  0  0  0
    5.4641   -2.7500    0.0000 C   0  0  0  0  0  0  0  0  0  0  0  0
    4.5981   -3.2500    0.0000 C   0  0  0  0  0  0  0  0  0  0  0  0
    5.6762   -0.3326    0.0000 H   0  0  0  0  0  0  0  0  0  0  0  0
    6.0747    0.3577    0.0000 H   0  0  0  0  0  0  0  0  0  0  0  0
    6.8671    1.4400    0.0000 H   0  0  0  0  0  0  0  0  0  0  0  0
    4.0611    1.4400    0.0000 H   0  0  0  0  0  0  0  0  0  0  0  0
    5.4641    3.8700    0.0000 H   0  0  0  0  0  0  0  0  0  0  0  0
    4.0611    3.0600    0.0000 H   0  0  0  0  0  0  0  0  0  0  0  0
    6.0010   -1.4400    0.0000 H   0  0  0  0  0  0  0  0  0  0  0  0
    3.1951   -3.0600    0.0000 H   0  0  0  0  0  0  0  0  0  0  0  0
    3.2646   -0.7751    0.0000 H   0  0  0  0  0  0  0  0  0  0  0  0
    2.4675   -0.7751    0.0000 H   0  0  0  0  0  0  0  0  0  0  0  0
    7.5062    2.7131    0.0000 H   0  0  0  0  0  0  0  0  0  0  0  0
    7.7331    3.5600    0.0000 H   0  0  0  0  0  0  0  0  0  0  0  0
    6.8862    3.7869    0.0000 H   0  0  0  0  0  0  0  0  0  0  0  0
    6.0010   -3.0600    0.0000 H   0  0  0  0  0  0  0  0  0  0  0  0
    4.5981   -3.8700    0.0000 H   0  0  0  0  0  0  0  0  0  0  0  0
  1 14  1  0  0  0  0
  2  4  1  0  0  0  0
  2  5  1  0  0  0  0
  3  4  1  0  0  0  0
  3  6  1  0  0  0  0
  3  9  2  0  0  0  0
  4 18  1  0  0  0  0
  4 19  1  0  0  0  0
  5  8  1  0  0  0  0
  5 12  2  0  0  0  0
  6  7  2  0  0  0  0
  6 20  1  0  0  0  0
  7 10  1  0  0  0  0
  7 15  1  0  0  0  0
  8 13  2  0  0  0  0
  8 14  1  0  0  0  0
  9 11  1  0  0  0  0
  9 21  1  0  0  0  0
 10 11  2  0  0  0  0
 10 22  1  0  0  0  0
 11 23  1  0  0  0  0
 12 16  1  0  0  0  0
 12 24  1  0  0  0  0
 13 17  1  0  0  0  0
 13 25  1  0  0  0  0
 14 26  1  0  0  0  0
 14 27  1  0  0  0  0
 15 28  1  0  0  0  0
 15 29  1  0  0  0  0
 15 30  1  0  0  0  0
 16 17  2  0  0  0  0
 16 31  1  0  0  0  0
 17 32  1  0  0  0  0
M  END
> <PUBCHEM_COMPOUND_CID>
29052790

> <PUBCHEM_COMPOUND_CANONICALIZED>
1

> <PUBCHEM_CACTVS_COMPLEXITY>
219

> <PUBCHEM_CACTVS_HBOND_ACCEPTOR>
1

> <PUBCHEM_CACTVS_HBOND_DONOR>
0

> <PUBCHEM_CACTVS_ROTATABLE_BOND>
4

> <PUBCHEM_CACTVS_SUBSKEYS>
AAADccBwIAAEAAAAAAAAAAAAAAAAAAAAAAAwYAAAAAAAAAABQAAAGgIAAAAADAegmEIyBoAABACAAiBCAAACCAAgIAAIiAAGCogMJiKFMRqCOCCkwBEIqAeAwGAOAAACAAAIAAAAAAQAABAAAAAAAAAAAA==

> <PUBCHEM_IUPAC_OPENEYE_NAME>
1-(chloromethyl)-2-(m-tolylmethoxy)benzene

> <PUBCHEM_IUPAC_CAS_NAME>
1-(chloromethyl)-2-[(3-methylphenyl)methoxy]benzene

> <PUBCHEM_IUPAC_NAME>
1-(chloromethyl)-2-[(3-methylphenyl)methoxy]benzene

> <PUBCHEM_IUPAC_SYSTEMATIC_NAME>
1-(chloromethyl)-2-[(3-methylphenyl)methoxy]benzene

> <PUBCHEM_IUPAC_TRADITIONAL_NAME>
1-(chloromethyl)-2-(3-methylbenzyl)oxy-benzene

> <PUBCHEM_IUPAC_INCHI>
InChI=1S/C15H15ClO/c1-12-5-4-6-13(9-12)11-17-15-8-3-2-7-14(15)10-16/h2-9H,10-11H2,1H3

> <PUBCHEM_IUPAC_INCHIKEY>
PZTLBSRQUJTSKW-UHFFFAOYSA-N

> <PUBCHEM_XLOGP3>
3.3

> <PUBCHEM_EXACT_MASS>
246.081143

> <PUBCHEM_MOLECULAR_FORMULA>
C15H15ClO

> <PUBCHEM_MOLECULAR_WEIGHT>
246.732

> <PUBCHEM_OPENEYE_CAN_SMILES>
CC1=CC(=CC=C1)COC2=CC=CC=C2CCl

> <PUBCHEM_OPENEYE_ISO_SMILES>
CC1=CC(=CC=C1)COC2=CC=CC=C2CCl

> <PUBCHEM_CACTVS_TPSA>
9.2

> <PUBCHEM_MONOISOTOPIC_WEIGHT>
246.081143

> <PUBCHEM_TOTAL_CHARGE>
0

> <PUBCHEM_HEAVY_ATOM_COUNT>
17

> <PUBCHEM_ATOM_DEF_STEREO_COUNT>
0

> <PUBCHEM_ATOM_UDEF_STEREO_COUNT>
0

> <PUBCHEM_BOND_DEF_STEREO_COUNT>
0

> <PUBCHEM_BOND_UDEF_STEREO_COUNT>
0

> <PUBCHEM_ISOTOPIC_ATOM_COUNT>
0

> <PUBCHEM_COMPONENT_COUNT>
1

> <PUBCHEM_CACTVS_TAUTO_COUNT>
1

> <PUBCHEM_COORDINATE_TYPE>
1
5
255

> <PUBCHEM_BONDANNOTATIONS>
10  11  8
12  16  8
13  17  8
16  17  8
3  6  8
3  9  8
5  12  8
5  8  8
6  7  8
7  10  8
8  13  8
9  11  8

$$$$
29053794
  -OEChem-03221309332D

 40 43  0     0  0  0  0  0  0999 V2000
    3.8660   -0.5843    0.0000 N   0  0  0  0  0  0  0  0  0  0  0  0
    3.0000   -2.0843    0.0000 C   0  0  0  0  0  0  0  0  0  0  0  0
    4.7320   -2.0843    0.0000 C   0  0  0  0  0  0  0  0  0  0  0  0
    3.8660   -1.5843    0.0000 C   0  0  0  0  0  0  0  0  0  0  0  0
    2.0000   -2.0843    0.0000 C   0  0  0  0  0  0  0  0  0  0  0  0
    2.5000   -2.9503    0.0000 C   0  0  0  0  0  0  0  0  0  0  0  0
    5.2320   -2.9503    0.0000 C   0  0  0  0  0  0  0  0  0  0  0  0
    5.7320   -2.0843    0.0000 C   0  0  0  0  0  0  0  0  0  0  0  0
    4.7320   -0.0843    0.0000 C   0  0  0  0  0  0  0  0  0  0  0  0
    4.7320    0.9157    0.0000 C   0  0  0  0  0  0  0  0  0  0  0  0
    5.5981    1.4157    0.0000 C   0  0  0  0  0  0  0  0  0  0  0  0
    3.8660    1.4157    0.0000 C   0  0  0  0  0  0  0  0  0  0  0  0
    5.5981    2.4157    0.0000 C   0  0  0  0  0  0  0  0  0  0  0  0
    3.8660    2.4157    0.0000 C   0  0  0  0  0  0  0  0  0  0  0  0
    6.4920    0.8810    0.0000 C   0  0  0  0  0  0  0  0  0  0  0  0
    4.7320    2.9157    0.0000 C   0  0  0  0  0  0  0  0  0  0  0  0
    6.4920    2.9503    0.0000 C   0  0  0  0  0  0  0  0  0  0  0  0
    7.3981    1.3949    0.0000 C   0  0  0  0  0  0  0  0  0  0  0  0
    7.3981    2.4365    0.0000 C   0  0  0  0  0  0  0  0  0  0  0  0
    4.8925   -1.4854    0.0000 H   0  0  0  0  0  0  0  0  0  0  0  0
    2.8395   -1.4854    0.0000 H   0  0  0  0  0  0  0  0  0  0  0  0
    4.4030   -1.2743    0.0000 H   0  0  0  0  0  0  0  0  0  0  0  0
    1.8923   -1.4737    0.0000 H   0  0  0  0  0  0  0  0  0  0  0  0
    1.4174   -2.2964    0.0000 H   0  0  0  0  0  0  0  0  0  0  0  0
    2.0250   -3.3489    0.0000 H   0  0  0  0  0  0  0  0  0  0  0  0
    2.9750   -3.3489    0.0000 H   0  0  0  0  0  0  0  0  0  0  0  0
    4.7571   -3.3489    0.0000 H   0  0  0  0  0  0  0  0  0  0  0  0
    5.7070   -3.3489    0.0000 H   0  0  0  0  0  0  0  0  0  0  0  0
    6.3147   -2.2964    0.0000 H   0  0  0  0  0  0  0  0  0  0  0  0
    5.8397   -1.4737    0.0000 H   0  0  0  0  0  0  0  0  0  0  0  0
    3.3291   -0.2743    0.0000 H   0  0  0  0  0  0  0  0  0  0  0  0
    4.9441   -0.6669    0.0000 H   0  0  0  0  0  0  0  0  0  0  0  0
    5.3426    0.0233    0.0000 H   0  0  0  0  0  0  0  0  0  0  0  0
    3.3291    1.1057    0.0000 H   0  0  0  0  0  0  0  0  0  0  0  0
    3.3291    2.7257    0.0000 H   0  0  0  0  0  0  0  0  0  0  0  0
    6.4848    0.2611    0.0000 H   0  0  0  0  0  0  0  0  0  0  0  0
    4.7320    3.5357    0.0000 H   0  0  0  0  0  0  0  0  0  0  0  0
    6.4848    3.5703    0.0000 H   0  0  0  0  0  0  0  0  0  0  0  0
    7.9338    1.0828    0.0000 H   0  0  0  0  0  0  0  0  0  0  0  0
    7.9338    2.7486    0.0000 H   0  0  0  0  0  0  0  0  0  0  0  0
  1  4  1  0  0  0  0
  1  9  1  0  0  0  0
  1 31  1  0  0  0  0
  2  4  1  0  0  0  0
  2  5  1  0  0  0  0
  2  6  1  0  0  0  0
  2 21  1  0  0  0  0
  3  4  1  0  0  0  0
  3  7  1  0  0  0  0
  3  8  1  0  0  0  0
  3 20  1  0  0  0  0
  4 22  1  0  0  0  0
  5  6  1  0  0  0  0
  5 23  1  0  0  0  0
  5 24  1  0  0  0  0
  6 25  1  0  0  0  0
  6 26  1  0  0  0  0
  7  8  1  0  0  0  0
  7 27  1  0  0  0  0
  7 28  1  0  0  0  0
  8 29  1  0  0  0  0
  8 30  1  0  0  0  0
  9 10  1  0  0  0  0
  9 32  1  0  0  0  0
  9 33  1  0  0  0  0
 10 11  1  0  0  0  0
 10 12  2  0  0  0  0
 11 13  1  0  0  0  0
 11 15  2  0  0  0  0
 12 14  1  0  0  0  0
 12 34  1  0  0  0  0
 13 16  1  0  0  0  0
 13 17  2  0  0  0  0
 14 16  2  0  0  0  0
 14 35  1  0  0  0  0
 15 18  1  0  0  0  0
 15 36  1  0  0  0  0
 16 37  1  0  0  0  0
 17 19  1  0  0  0  0
 17 38  1  0  0  0  0
 18 19  2  0  0  0  0
 18 39  1  0  0  0  0
 19 40  1  0  0  0  0
M  END
> <PUBCHEM_COMPOUND_CID>
29053794

> <PUBCHEM_COMPOUND_CANONICALIZED>
1

> <PUBCHEM_CACTVS_COMPLEXITY>
293

> <PUBCHEM_CACTVS_HBOND_ACCEPTOR>
1

> <PUBCHEM_CACTVS_HBOND_DONOR>
1

> <PUBCHEM_CACTVS_ROTATABLE_BOND>
5

> <PUBCHEM_CACTVS_SUBSKEYS>
AAADceB6AAAAAAAAAAAAAAAAGDAAAAAAAAAwYAAAAAAAAADBUAAAHAAQAAAADSjBGAQwAMLAAACAAiBCAACCAAAgAAAIiIAIBIgIICKAkRGEIAhgkACIiAcQgMAOgAACAAAQAAAAAAQAACAAAAAAAAAAAA==

> <PUBCHEM_IUPAC_OPENEYE_NAME>
1,1-dicyclopropyl-N-(1-naphthylmethyl)methanamine

> <PUBCHEM_IUPAC_CAS_NAME>
1,1-dicyclopropyl-N-(1-naphthalenylmethyl)methanamine

> <PUBCHEM_IUPAC_NAME>
1,1-dicyclopropyl-N-(naphthalen-1-ylmethyl)methanamine

> <PUBCHEM_IUPAC_SYSTEMATIC_NAME>
1,1-dicyclopropyl-N-(naphthalen-1-ylmethyl)methanamine

> <PUBCHEM_IUPAC_TRADITIONAL_NAME>
dicyclopropylmethyl(1-naphthylmethyl)amine

> <PUBCHEM_IUPAC_INCHI>
InChI=1S/C18H21N/c1-2-7-17-13(4-1)5-3-6-16(17)12-19-18(14-8-9-14)15-10-11-15/h1-7,14-15,18-19H,8-12H2

> <PUBCHEM_IUPAC_INCHIKEY>
AOTZRNTURZYBLO-UHFFFAOYSA-N

> <PUBCHEM_XLOGP3>
4.2

> <PUBCHEM_EXACT_MASS>
251.1674

> <PUBCHEM_MOLECULAR_FORMULA>
C18H21N

> <PUBCHEM_MOLECULAR_WEIGHT>
251.36604

> <PUBCHEM_OPENEYE_CAN_SMILES>
C1CC1C(C2CC2)NCC3=CC=CC4=CC=CC=C43

> <PUBCHEM_OPENEYE_ISO_SMILES>
C1CC1C(C2CC2)NCC3=CC=CC4=CC=CC=C43

> <PUBCHEM_CACTVS_TPSA>
12

> <PUBCHEM_MONOISOTOPIC_WEIGHT>
251.1674

> <PUBCHEM_TOTAL_CHARGE>
0

> <PUBCHEM_HEAVY_ATOM_COUNT>
19

> <PUBCHEM_ATOM_DEF_STEREO_COUNT>
0

> <PUBCHEM_ATOM_UDEF_STEREO_COUNT>
0

> <PUBCHEM_BOND_DEF_STEREO_COUNT>
0

> <PUBCHEM_BOND_UDEF_STEREO_COUNT>
0

> <PUBCHEM_ISOTOPIC_ATOM_COUNT>
0

> <PUBCHEM_COMPONENT_COUNT>
1

> <PUBCHEM_CACTVS_TAUTO_COUNT>
1

> <PUBCHEM_COORDINATE_TYPE>
1
5
255

> <PUBCHEM_BONDANNOTATIONS>
10  11  8
10  12  8
11  13  8
11  15  8
12  14  8
13  16  8
13  17  8
14  16  8
15  18  8
17  19  8
18  19  8

$$$$
29056582
  -OEChem-03221309332D

 34 36  0     0  0  0  0  0  0999 V2000
    6.2619    0.0000    0.0000 N   0  3  0  0  0  0  0  0  0  0  0  0
    4.6783    0.8047    0.0000 N   0  0  0  0  0  0  0  0  0  0  0  0
    4.6783   -0.8047    0.0000 N   0  0  0  0  0  0  0  0  0  0  0  0
    8.2619    0.0000    0.0000 C   0  0  0  0  0  0  0  0  0  0  0  0
    7.7619   -0.8660    0.0000 C   0  0  0  0  0  0  0  0  0  0  0  0
    7.7619    0.8660    0.0000 C   0  0  0  0  0  0  0  0  0  0  0  0
    6.7619   -0.8660    0.0000 C   0  0  0  0  0  0  0  0  0  0  0  0
    6.7619    0.8660    0.0000 C   0  0  0  0  0  0  0  0  0  0  0  0
    5.2619    0.0000    0.0000 C   0  0  0  0  0  0  0  0  0  0  0  0
    9.2619    0.0000    0.0000 C   0  0  0  0  0  0  0  0  0  0  0  0
    3.7320    0.5000    0.0000 C   0  0  0  0  0  0  0  0  0  0  0  0
    3.7320   -0.5000    0.0000 C   0  0  0  0  0  0  0  0  0  0  0  0
    2.8660    1.0000    0.0000 C   0  0  0  0  0  0  0  0  0  0  0  0
    2.8660   -1.0000    0.0000 C   0  0  0  0  0  0  0  0  0  0  0  0
    2.0000    0.5000    0.0000 C   0  0  0  0  0  0  0  0  0  0  0  0
    2.0000   -0.5000    0.0000 C   0  0  0  0  0  0  0  0  0  0  0  0
    8.5719    0.5369    0.0000 H   0  0  0  0  0  0  0  0  0  0  0  0
    7.6542   -1.4766    0.0000 H   0  0  0  0  0  0  0  0  0  0  0  0
    8.3445   -1.0781    0.0000 H   0  0  0  0  0  0  0  0  0  0  0  0
    8.3445    1.0781    0.0000 H   0  0  0  0  0  0  0  0  0  0  0  0
    7.6542    1.4766    0.0000 H   0  0  0  0  0  0  0  0  0  0  0  0
    6.1793   -1.0781    0.0000 H   0  0  0  0  0  0  0  0  0  0  0  0
    6.8695   -1.4766    0.0000 H   0  0  0  0  0  0  0  0  0  0  0  0
    6.8695    1.4766    0.0000 H   0  0  0  0  0  0  0  0  0  0  0  0
    6.1793    1.0781    0.0000 H   0  0  0  0  0  0  0  0  0  0  0  0
    9.2619   -0.6200    0.0000 H   0  0  0  0  0  0  0  0  0  0  0  0
    9.8819    0.0000    0.0000 H   0  0  0  0  0  0  0  0  0  0  0  0
    9.2619    0.6200    0.0000 H   0  0  0  0  0  0  0  0  0  0  0  0
    4.8709    1.3940    0.0000 H   0  0  0  0  0  0  0  0  0  0  0  0
    4.8709   -1.3940    0.0000 H   0  0  0  0  0  0  0  0  0  0  0  0
    2.8660   -1.6200    0.0000 H   0  0  0  0  0  0  0  0  0  0  0  0
    2.8660    1.6200    0.0000 H   0  0  0  0  0  0  0  0  0  0  0  0
    1.4631   -0.8100    0.0000 H   0  0  0  0  0  0  0  0  0  0  0  0
    1.4631    0.8100    0.0000 H   0  0  0  0  0  0  0  0  0  0  0  0
  1  7  1  0  0  0  0
  1  8  1  0  0  0  0
  1  9  2  0  0  0  0
  2  9  1  0  0  0  0
  2 11  1  0  0  0  0
  2 29  1  0  0  0  0
  3  9  1  0  0  0  0
  3 12  1  0  0  0  0
  3 30  1  0  0  0  0
  4  5  1  0  0  0  0
  4  6  1  0  0  0  0
  4 10  1  0  0  0  0
  4 17  1  0  0  0  0
  5  7  1  0  0  0  0
  5 18  1  0  0  0  0
  5 19  1  0  0  0  0
  6  8  1  0  0  0  0
  6 20  1  0  0  0  0
  6 21  1  0  0  0  0
  7 22  1  0  0  0  0
  7 23  1  0  0  0  0
  8 24  1  0  0  0  0
  8 25  1  0  0  0  0
 10 26  1  0  0  0  0
 10 27  1  0  0  0  0
 10 28  1  0  0  0  0
 11 12  1  0  0  0  0
 11 13  2  0  0  0  0
 12 14  2  0  0  0  0
 13 15  1  0  0  0  0
 13 32  1  0  0  0  0
 14 16  1  0  0  0  0
 14 31  1  0  0  0  0
 15 16  2  0  0  0  0
 15 34  1  0  0  0  0
 16 33  1  0  0  0  0
M  CHG  1   1   1
M  END
> <PUBCHEM_COMPOUND_CID>
29056582

> <PUBCHEM_COMPOUND_CANONICALIZED>
1

> <PUBCHEM_CACTVS_COMPLEXITY>
272

> <PUBCHEM_CACTVS_HBOND_ACCEPTOR>
0

> <PUBCHEM_CACTVS_HBOND_DONOR>
2

> <PUBCHEM_CACTVS_ROTATABLE_BOND>
0

> <PUBCHEM_CACTVS_SUBSKEYS>
AAADceBzAAAAAAAAAAAAAAAAAAAAAWAAAAA8QAAAAAAAAFgBAAAAHAAQAAAADQjBEAQzwIPAAACgACRCZACCAAEhAgAJiAAIdIiIYCLAmZGUIAhokALIyCcQAAAKAAAAAAAAACAAAAAAAAAAQAAAAAAAAA==

> <PUBCHEM_IUPAC_OPENEYE_NAME>
2-(4-methylpiperidin-1-ium-1-ylidene)-1,3-dihydrobenzimidazole

> <PUBCHEM_IUPAC_CAS_NAME>
2-(4-methyl-1-piperidin-1-iumylidene)-1,3-dihydrobenzimidazole

> <PUBCHEM_IUPAC_NAME>
2-(4-methylpiperidin-1-ium-1-ylidene)-1,3-dihydrobenzimidazole

> <PUBCHEM_IUPAC_SYSTEMATIC_NAME>
2-(4-methylpiperidin-1-ium-1-ylidene)-1,3-dihydrobenzimidazole

> <PUBCHEM_IUPAC_TRADITIONAL_NAME>
2-(4-methylpiperidin-1-ium-1-ylidene)-1,3-dihydrobenzimidazole

> <PUBCHEM_IUPAC_INCHI>
InChI=1S/C13H17N3/c1-10-6-8-16(9-7-10)13-14-11-4-2-3-5-12(11)15-13/h2-5,10H,6-9H2,1H3,(H,14,15)/p+1

> <PUBCHEM_IUPAC_INCHIKEY>
PUHHTJJRHYUBDJ-UHFFFAOYSA-O

> <PUBCHEM_XLOGP3>
2.2

> <PUBCHEM_EXACT_MASS>
216.150073

> <PUBCHEM_MOLECULAR_FORMULA>
C13H18N3+

> <PUBCHEM_MOLECULAR_WEIGHT>
216.30212

> <PUBCHEM_OPENEYE_CAN_SMILES>
CC1CC[N+](=C2NC3=CC=CC=C3N2)CC1

> <PUBCHEM_OPENEYE_ISO_SMILES>
CC1CC[N+](=C2NC3=CC=CC=C3N2)CC1

> <PUBCHEM_CACTVS_TPSA>
27.1

> <PUBCHEM_MONOISOTOPIC_WEIGHT>
216.150073

> <PUBCHEM_TOTAL_CHARGE>
1

> <PUBCHEM_HEAVY_ATOM_COUNT>
16

> <PUBCHEM_ATOM_DEF_STEREO_COUNT>
0

> <PUBCHEM_ATOM_UDEF_STEREO_COUNT>
0

> <PUBCHEM_BOND_DEF_STEREO_COUNT>
0

> <PUBCHEM_BOND_UDEF_STEREO_COUNT>
0

> <PUBCHEM_ISOTOPIC_ATOM_COUNT>
0

> <PUBCHEM_COMPONENT_COUNT>
1

> <PUBCHEM_CACTVS_TAUTO_COUNT>
2

> <PUBCHEM_COORDINATE_TYPE>
1
5
255

> <PUBCHEM_BONDANNOTATIONS>
11  12  8
11  13  8
12  14  8
13  15  8
14  16  8
15  16  8
2  11  8
2  9  8
3  12  8
3  9  8

$$$$
