24900253
  -OEChem-12041211252D

 35 35  0     0  0  0  0  0  0999 V2000
    3.8660   -2.0000    0.0000 N   0  0  0  0  0  0  0  0  0  0  0  0
    3.0000   -0.5000    0.0000 C   0  0  0  0  0  0  0  0  0  0  0  0
    3.0000    0.5000    0.0000 C   0  0  0  0  0  0  0  0  0  0  0  0
    3.8660    1.0000    0.0000 C   0  0  0  0  0  0  0  0  0  0  0  0
    4.0000   -0.5000    0.0000 C   0  0  0  0  0  0  0  0  0  0  0  0
    2.0000   -0.5000    0.0000 C   0  0  0  0  0  0  0  0  0  0  0  0
    3.8660    2.0000    0.0000 C   0  0  0  0  0  0  0  0  0  0  0  0
    3.0000   -1.5000    0.0000 C   0  0  0  0  0  0  0  0  0  0  0  0
    4.7320    2.5000    0.0000 C   0  0  0  0  0  0  0  0  0  0  0  0
    2.1340   -2.0000    0.0000 C   0  0  0  0  0  0  0  0  0  0  0  0
    4.7320    3.5000    0.0000 C   0  0  0  0  0  0  0  0  0  0  0  0
    2.1340   -3.0000    0.0000 C   0  0  0  0  0  0  0  0  0  0  0  0
    3.8660   -3.0000    0.0000 C   0  0  0  0  0  0  0  0  0  0  0  0
    3.0000   -3.5000    0.0000 C   0  0  0  0  0  0  0  0  0  0  0  0
    2.7880    1.0826    0.0000 H   0  0  0  0  0  0  0  0  0  0  0  0
    2.3894    0.3923    0.0000 H   0  0  0  0  0  0  0  0  0  0  0  0
    4.0781    0.4174    0.0000 H   0  0  0  0  0  0  0  0  0  0  0  0
    4.4766    1.1077    0.0000 H   0  0  0  0  0  0  0  0  0  0  0  0
    4.0000   -1.1200    0.0000 H   0  0  0  0  0  0  0  0  0  0  0  0
    4.6200   -0.5000    0.0000 H   0  0  0  0  0  0  0  0  0  0  0  0
    4.0000    0.1200    0.0000 H   0  0  0  0  0  0  0  0  0  0  0  0
    2.0000    0.1200    0.0000 H   0  0  0  0  0  0  0  0  0  0  0  0
    1.3800   -0.5000    0.0000 H   0  0  0  0  0  0  0  0  0  0  0  0
    2.0000   -1.1200    0.0000 H   0  0  0  0  0  0  0  0  0  0  0  0
    3.6540    2.5826    0.0000 H   0  0  0  0  0  0  0  0  0  0  0  0
    3.2554    1.8923    0.0000 H   0  0  0  0  0  0  0  0  0  0  0  0
    4.9441    1.9174    0.0000 H   0  0  0  0  0  0  0  0  0  0  0  0
    5.3426    2.6077    0.0000 H   0  0  0  0  0  0  0  0  0  0  0  0
    1.5970   -1.6900    0.0000 H   0  0  0  0  0  0  0  0  0  0  0  0
    5.3520    3.5000    0.0000 H   0  0  0  0  0  0  0  0  0  0  0  0
    4.7320    4.1200    0.0000 H   0  0  0  0  0  0  0  0  0  0  0  0
    4.1120    3.5000    0.0000 H   0  0  0  0  0  0  0  0  0  0  0  0
    1.5970   -3.3100    0.0000 H   0  0  0  0  0  0  0  0  0  0  0  0
    4.4030   -3.3100    0.0000 H   0  0  0  0  0  0  0  0  0  0  0  0
    3.0000   -4.1200    0.0000 H   0  0  0  0  0  0  0  0  0  0  0  0
  1  8  1  0  0  0  0
  1 13  2  0  0  0  0
  2  3  1  0  0  0  0
  2  5  1  0  0  0  0
  2  6  1  0  0  0  0
  2  8  1  0  0  0  0
  3  4  1  0  0  0  0
  3 15  1  0  0  0  0
  3 16  1  0  0  0  0
  4  7  1  0  0  0  0
  4 17  1  0  0  0  0
  4 18  1  0  0  0  0
  5 19  1  0  0  0  0
  5 20  1  0  0  0  0
  5 21  1  0  0  0  0
  6 22  1  0  0  0  0
  6 23  1  0  0  0  0
  6 24  1  0  0  0  0
  7  9  1  0  0  0  0
  7 25  1  0  0  0  0
  7 26  1  0  0  0  0
  8 10  2  0  0  0  0
  9 11  1  0  0  0  0
  9 27  1  0  0  0  0
  9 28  1  0  0  0  0
 10 12  1  0  0  0  0
 10 29  1  0  0  0  0
 11 30  1  0  0  0  0
 11 31  1  0  0  0  0
 11 32  1  0  0  0  0
 12 14  2  0  0  0  0
 12 33  1  0  0  0  0
 13 14  1  0  0  0  0
 13 34  1  0  0  0  0
 14 35  1  0  0  0  0
M  END
> <PUBCHEM_COMPOUND_CID>
24900253

> <PUBCHEM_COMPOUND_CANONICALIZED>
1

> <PUBCHEM_CACTVS_COMPLEXITY>
151

> <PUBCHEM_CACTVS_HBOND_ACCEPTOR>
1

> <PUBCHEM_CACTVS_HBOND_DONOR>
0

> <PUBCHEM_CACTVS_ROTATABLE_BOND>
5

> <PUBCHEM_CACTVS_SUBSKEYS>
AAADceByAAAAAAAAAAAAAAAAAAAAAAAAAAAsAAAAAAAAAAABgAAAHAAAAAAADgjBFgQ+gJIIEACgATRnRACCgCAxAiAI2CA4ZJgIIOLAkZGEIAhggADIyAcQgMAPAAAAAAAAAAAAAAAAAAAAAAAAAAAAAA==

> <PUBCHEM_IUPAC_OPENEYE_NAME>
2-(1,1-dimethylhexyl)pyridine

> <PUBCHEM_IUPAC_CAS_NAME>
2-(2-methylheptan-2-yl)pyridine

> <PUBCHEM_IUPAC_NAME>
2-(2-methylheptan-2-yl)pyridine

> <PUBCHEM_IUPAC_SYSTEMATIC_NAME>
2-(2-methylheptan-2-yl)pyridine

> <PUBCHEM_IUPAC_TRADITIONAL_NAME>
2-(1,1-dimethylhexyl)pyridine

> <PUBCHEM_IUPAC_INCHI>
InChI=1S/C13H21N/c1-4-5-7-10-13(2,3)12-9-6-8-11-14-12/h6,8-9,11H,4-5,7,10H2,1-3H3

> <PUBCHEM_IUPAC_INCHIKEY>
UPDDIBOLPXOHDR-UHFFFAOYSA-N

> <PUBCHEM_XLOGP3>
4.4

> <PUBCHEM_EXACT_MASS>
191.1674

> <PUBCHEM_MOLECULAR_FORMULA>
C13H21N

> <PUBCHEM_MOLECULAR_WEIGHT>
191.31254

> <PUBCHEM_OPENEYE_CAN_SMILES>
CCCCCC(C)(C)C1=CC=CC=N1

> <PUBCHEM_OPENEYE_ISO_SMILES>
CCCCCC(C)(C)C1=CC=CC=N1

> <PUBCHEM_CACTVS_TPSA>
12.9

> <PUBCHEM_MONOISOTOPIC_WEIGHT>
191.1674

> <PUBCHEM_TOTAL_CHARGE>
0

> <PUBCHEM_HEAVY_ATOM_COUNT>
14

> <PUBCHEM_ATOM_DEF_STEREO_COUNT>
0

> <PUBCHEM_ATOM_UDEF_STEREO_COUNT>
0

> <PUBCHEM_BOND_DEF_STEREO_COUNT>
0

> <PUBCHEM_BOND_UDEF_STEREO_COUNT>
0

> <PUBCHEM_ISOTOPIC_ATOM_COUNT>
0

> <PUBCHEM_COMPONENT_COUNT>
1

> <PUBCHEM_CACTVS_TAUTO_COUNT>
1

> <PUBCHEM_COORDINATE_TYPE>
1
5
255

> <PUBCHEM_BONDANNOTATIONS>
1  13  8
1  8  8
10  12  8
12  14  8
13  14  8
8  10  8

$$$$
24900254
  -OEChem-12041211252D

 32 33  0     0  0  0  0  0  0999 V2000
    5.4920    0.9480    0.0000 N   0  0  0  0  0  0  0  0  0  0  0  0
    2.8660   -0.5173    0.0000 C   0  0  0  0  0  0  0  0  0  0  0  0
    3.7320   -0.0173    0.0000 C   0  0  0  0  0  0  0  0  0  0  0  0
    2.8660   -1.5173    0.0000 C   0  0  0  0  0  0  0  0  0  0  0  0
    3.7320    0.9827    0.0000 C   0  0  0  0  0  0  0  0  0  0  0  0
    2.0000   -2.0173    0.0000 C   0  0  0  0  0  0  0  0  0  0  0  0
    4.5981    1.4827    0.0000 C   0  0  0  0  0  0  0  0  0  0  0  0
    4.5981    2.4827    0.0000 C   0  0  0  0  0  0  0  0  0  0  0  0
    2.8660    1.4827    0.0000 C   0  0  0  0  0  0  0  0  0  0  0  0
    2.0000   -3.0173    0.0000 C   0  0  0  0  0  0  0  0  0  0  0  0
    3.7320    2.9827    0.0000 C   0  0  0  0  0  0  0  0  0  0  0  0
    2.8660    2.4827    0.0000 C   0  0  0  0  0  0  0  0  0  0  0  0
    5.4920    3.0173    0.0000 C   0  0  0  0  0  0  0  0  0  0  0  0
    6.3981    2.5035    0.0000 C   0  0  0  0  0  0  0  0  0  0  0  0
    6.3981    1.4619    0.0000 C   0  0  0  0  0  0  0  0  0  0  0  0
    2.6540    0.0653    0.0000 H   0  0  0  0  0  0  0  0  0  0  0  0
    2.2554   -0.6250    0.0000 H   0  0  0  0  0  0  0  0  0  0  0  0
    3.9441   -0.5999    0.0000 H   0  0  0  0  0  0  0  0  0  0  0  0
    4.3426    0.0903    0.0000 H   0  0  0  0  0  0  0  0  0  0  0  0
    3.0781   -2.0999    0.0000 H   0  0  0  0  0  0  0  0  0  0  0  0
    3.4766   -1.4097    0.0000 H   0  0  0  0  0  0  0  0  0  0  0  0
    1.7880   -1.4347    0.0000 H   0  0  0  0  0  0  0  0  0  0  0  0
    1.3894   -2.1250    0.0000 H   0  0  0  0  0  0  0  0  0  0  0  0
    2.3291    1.1727    0.0000 H   0  0  0  0  0  0  0  0  0  0  0  0
    1.3800   -3.0173    0.0000 H   0  0  0  0  0  0  0  0  0  0  0  0
    2.0000   -3.6373    0.0000 H   0  0  0  0  0  0  0  0  0  0  0  0
    2.6200   -3.0173    0.0000 H   0  0  0  0  0  0  0  0  0  0  0  0
    3.7320    3.6027    0.0000 H   0  0  0  0  0  0  0  0  0  0  0  0
    2.3291    2.7927    0.0000 H   0  0  0  0  0  0  0  0  0  0  0  0
    5.4848    3.6373    0.0000 H   0  0  0  0  0  0  0  0  0  0  0  0
    6.9338    2.8156    0.0000 H   0  0  0  0  0  0  0  0  0  0  0  0
    6.9338    1.1498    0.0000 H   0  0  0  0  0  0  0  0  0  0  0  0
  1  7  1  0  0  0  0
  1 15  2  0  0  0  0
  2  3  1  0  0  0  0
  2  4  1  0  0  0  0
  2 16  1  0  0  0  0
  2 17  1  0  0  0  0
  3  5  1  0  0  0  0
  3 18  1  0  0  0  0
  3 19  1  0  0  0  0
  4  6  1  0  0  0  0
  4 20  1  0  0  0  0
  4 21  1  0  0  0  0
  5  7  1  0  0  0  0
  5  9  2  0  0  0  0
  6 10  1  0  0  0  0
  6 22  1  0  0  0  0
  6 23  1  0  0  0  0
  7  8  2  0  0  0  0
  8 11  1  0  0  0  0
  8 13  1  0  0  0  0
  9 12  1  0  0  0  0
  9 24  1  0  0  0  0
 10 25  1  0  0  0  0
 10 26  1  0  0  0  0
 10 27  1  0  0  0  0
 11 12  2  0  0  0  0
 11 28  1  0  0  0  0
 12 29  1  0  0  0  0
 13 14  2  0  0  0  0
 13 30  1  0  0  0  0
 14 15  1  0  0  0  0
 14 31  1  0  0  0  0
 15 32  1  0  0  0  0
M  END
> <PUBCHEM_COMPOUND_CID>
24900254

> <PUBCHEM_COMPOUND_CANONICALIZED>
1

> <PUBCHEM_CACTVS_COMPLEXITY>
178

> <PUBCHEM_CACTVS_HBOND_ACCEPTOR>
1

> <PUBCHEM_CACTVS_HBOND_DONOR>
0

> <PUBCHEM_CACTVS_ROTATABLE_BOND>
4

> <PUBCHEM_CACTVS_SUBSKEYS>
AAADceByAAAAAAAAAAAAAAAAAAAAAAAAAAA8QAAAAAAAAACx8AAAHAAAAAAADAjBHgQ+wPIIEACgAzRnRACCgCAxAiAI2CA4ZJgIIOLAkZGEIAhggADIyAcQgMAOAAACAAACAAAAAAQAAAQAAAAAAAAAAA==

> <PUBCHEM_IUPAC_OPENEYE_NAME>
8-pentylquinoline

> <PUBCHEM_IUPAC_CAS_NAME>
8-pentylquinoline

> <PUBCHEM_IUPAC_NAME>
8-pentylquinoline

> <PUBCHEM_IUPAC_SYSTEMATIC_NAME>
8-pentylquinoline

> <PUBCHEM_IUPAC_TRADITIONAL_NAME>
8-amylquinoline

> <PUBCHEM_IUPAC_INCHI>
InChI=1S/C14H17N/c1-2-3-4-7-12-8-5-9-13-10-6-11-15-14(12)13/h5-6,8-11H,2-4,7H2,1H3

> <PUBCHEM_IUPAC_INCHIKEY>
NWVGXMHHTQRSRA-UHFFFAOYSA-N

> <PUBCHEM_XLOGP3>
4.6

> <PUBCHEM_EXACT_MASS>
199.1361

> <PUBCHEM_MOLECULAR_FORMULA>
C14H17N

> <PUBCHEM_MOLECULAR_WEIGHT>
199.29148

> <PUBCHEM_OPENEYE_CAN_SMILES>
CCCCCC1=CC=CC2=C1N=CC=C2

> <PUBCHEM_OPENEYE_ISO_SMILES>
CCCCCC1=CC=CC2=C1N=CC=C2

> <PUBCHEM_CACTVS_TPSA>
12.9

> <PUBCHEM_MONOISOTOPIC_WEIGHT>
199.1361

> <PUBCHEM_TOTAL_CHARGE>
0

> <PUBCHEM_HEAVY_ATOM_COUNT>
15

> <PUBCHEM_ATOM_DEF_STEREO_COUNT>
0

> <PUBCHEM_ATOM_UDEF_STEREO_COUNT>
0

> <PUBCHEM_BOND_DEF_STEREO_COUNT>
0

> <PUBCHEM_BOND_UDEF_STEREO_COUNT>
0

> <PUBCHEM_ISOTOPIC_ATOM_COUNT>
0

> <PUBCHEM_COMPONENT_COUNT>
1

> <PUBCHEM_CACTVS_TAUTO_COUNT>
1

> <PUBCHEM_COORDINATE_TYPE>
1
5
255

> <PUBCHEM_BONDANNOTATIONS>
1  15  8
1  7  8
11  12  8
13  14  8
14  15  8
5  7  8
5  9  8
7  8  8
8  11  8
8  13  8
9  12  8

$$$$
24900255
  -OEChem-12041211252D

 27 29  0     0  0  0  0  0  0999 V2000
    5.6260    0.1310    0.0000 N   0  0  0  0  0  0  0  0  0  0  0  0
    3.0000   -1.3343    0.0000 C   0  0  0  0  0  0  0  0  0  0  0  0
    2.0000   -1.3343    0.0000 C   0  0  0  0  0  0  0  0  0  0  0  0
    2.5000   -2.2003    0.0000 C   0  0  0  0  0  0  0  0  0  0  0  0
    3.8660   -0.8343    0.0000 C   0  0  0  0  0  0  0  0  0  0  0  0
    3.8660    0.1657    0.0000 C   0  0  0  0  0  0  0  0  0  0  0  0
    4.7320    0.6657    0.0000 C   0  0  0  0  0  0  0  0  0  0  0  0
    3.0000    0.6657    0.0000 C   0  0  0  0  0  0  0  0  0  0  0  0
    4.7320    1.6657    0.0000 C   0  0  0  0  0  0  0  0  0  0  0  0
    3.0000    1.6657    0.0000 C   0  0  0  0  0  0  0  0  0  0  0  0
    3.8660    2.1657    0.0000 C   0  0  0  0  0  0  0  0  0  0  0  0
    5.6260    2.2003    0.0000 C   0  0  0  0  0  0  0  0  0  0  0  0
    6.5321    0.6449    0.0000 C   0  0  0  0  0  0  0  0  0  0  0  0
    6.5321    1.6865    0.0000 C   0  0  0  0  0  0  0  0  0  0  0  0
    2.8395   -0.7354    0.0000 H   0  0  0  0  0  0  0  0  0  0  0  0
    1.8923   -0.7237    0.0000 H   0  0  0  0  0  0  0  0  0  0  0  0
    1.4174   -1.5464    0.0000 H   0  0  0  0  0  0  0  0  0  0  0  0
    2.0250   -2.5989    0.0000 H   0  0  0  0  0  0  0  0  0  0  0  0
    2.9750   -2.5989    0.0000 H   0  0  0  0  0  0  0  0  0  0  0  0
    4.0781   -1.4169    0.0000 H   0  0  0  0  0  0  0  0  0  0  0  0
    4.4766   -0.7267    0.0000 H   0  0  0  0  0  0  0  0  0  0  0  0
    2.4631    0.3557    0.0000 H   0  0  0  0  0  0  0  0  0  0  0  0
    2.4631    1.9757    0.0000 H   0  0  0  0  0  0  0  0  0  0  0  0
    3.8660    2.7857    0.0000 H   0  0  0  0  0  0  0  0  0  0  0  0
    5.6188    2.8203    0.0000 H   0  0  0  0  0  0  0  0  0  0  0  0
    7.0678    0.3328    0.0000 H   0  0  0  0  0  0  0  0  0  0  0  0
    7.0678    1.9986    0.0000 H   0  0  0  0  0  0  0  0  0  0  0  0
  1  7  1  0  0  0  0
  1 13  2  0  0  0  0
  2  3  1  0  0  0  0
  2  4  1  0  0  0  0
  2  5  1  0  0  0  0
  2 15  1  0  0  0  0
  3  4  1  0  0  0  0
  3 16  1  0  0  0  0
  3 17  1  0  0  0  0
  4 18  1  0  0  0  0
  4 19  1  0  0  0  0
  5  6  1  0  0  0  0
  5 20  1  0  0  0  0
  5 21  1  0  0  0  0
  6  7  1  0  0  0  0
  6  8  2  0  0  0  0
  7  9  2  0  0  0  0
  8 10  1  0  0  0  0
  8 22  1  0  0  0  0
  9 11  1  0  0  0  0
  9 12  1  0  0  0  0
 10 11  2  0  0  0  0
 10 23  1  0  0  0  0
 11 24  1  0  0  0  0
 12 14  2  0  0  0  0
 12 25  1  0  0  0  0
 13 14  1  0  0  0  0
 13 26  1  0  0  0  0
 14 27  1  0  0  0  0
M  END
> <PUBCHEM_COMPOUND_CID>
24900255

> <PUBCHEM_COMPOUND_CANONICALIZED>
1

> <PUBCHEM_CACTVS_COMPLEXITY>
197

> <PUBCHEM_CACTVS_HBOND_ACCEPTOR>
1

> <PUBCHEM_CACTVS_HBOND_DONOR>
0

> <PUBCHEM_CACTVS_ROTATABLE_BOND>
2

> <PUBCHEM_CACTVS_SUBSKEYS>
AAADccByAAAAAAAAAAAAAAAAGAAAAAAAAAA8QAAAAAAAAACx8AAAHAAAAAAADQjBHgQ8wPIIEACgAzRnRACCgCAxAiAI2CA4ZJgIIOLAkZGEIAhggADIyAcQgMAOAAACAAACAAAAAAQAAAQAAAAAAAAAAA==

> <PUBCHEM_IUPAC_OPENEYE_NAME>
8-(cyclopropylmethyl)quinoline

> <PUBCHEM_IUPAC_CAS_NAME>
8-(cyclopropylmethyl)quinoline

> <PUBCHEM_IUPAC_NAME>
8-(cyclopropylmethyl)quinoline

> <PUBCHEM_IUPAC_SYSTEMATIC_NAME>
8-(cyclopropylmethyl)quinoline

> <PUBCHEM_IUPAC_TRADITIONAL_NAME>
8-(cyclopropylmethyl)quinoline

> <PUBCHEM_IUPAC_INCHI>
InChI=1S/C13H13N/c1-3-11-5-2-8-14-13(11)12(4-1)9-10-6-7-10/h1-5,8,10H,6-7,9H2

> <PUBCHEM_IUPAC_INCHIKEY>
GUBQOHXJCOXIOR-UHFFFAOYSA-N

> <PUBCHEM_XLOGP3>
3.5

> <PUBCHEM_EXACT_MASS>
183.104799

> <PUBCHEM_MOLECULAR_FORMULA>
C13H13N

> <PUBCHEM_MOLECULAR_WEIGHT>
183.24902

> <PUBCHEM_OPENEYE_CAN_SMILES>
C1CC1CC2=CC=CC3=C2N=CC=C3

> <PUBCHEM_OPENEYE_ISO_SMILES>
C1CC1CC2=CC=CC3=C2N=CC=C3

> <PUBCHEM_CACTVS_TPSA>
12.9

> <PUBCHEM_MONOISOTOPIC_WEIGHT>
183.104799

> <PUBCHEM_TOTAL_CHARGE>
0

> <PUBCHEM_HEAVY_ATOM_COUNT>
14

> <PUBCHEM_ATOM_DEF_STEREO_COUNT>
0

> <PUBCHEM_ATOM_UDEF_STEREO_COUNT>
0

> <PUBCHEM_BOND_DEF_STEREO_COUNT>
0

> <PUBCHEM_BOND_UDEF_STEREO_COUNT>
0

> <PUBCHEM_ISOTOPIC_ATOM_COUNT>
0

> <PUBCHEM_COMPONENT_COUNT>
1

> <PUBCHEM_CACTVS_TAUTO_COUNT>
1

> <PUBCHEM_COORDINATE_TYPE>
1
5
255

> <PUBCHEM_BONDANNOTATIONS>
1  13  8
1  7  8
10  11  8
12  14  8
13  14  8
6  7  8
6  8  8
7  9  8
8  10  8
9  11  8
9  12  8

$$$$
24905110
  -OEChem-12041211252D

 23 24  0     0  0  0  0  0  0999 V2000
    2.0000    0.0103    0.0000 Cl  0  0  0  0  0  0  0  0  0  0  0  0
    7.5013    0.2275    0.0000 O   0  0  0  0  0  0  0  0  0  0  0  0
    5.5443   -1.7944    0.0000 N   0  0  0  0  0  0  0  0  0  0  0  0
    7.1441    1.9223    0.0000 N   0  0  0  0  0  0  0  0  0  0  0  0
    4.5981   -0.4897    0.0000 C   0  0  0  0  0  0  0  0  0  0  0  0
    5.5443   -0.1850    0.0000 C   0  0  0  0  0  0  0  0  0  0  0  0
    4.5981   -1.4897    0.0000 C   0  0  0  0  0  0  0  0  0  0  0  0
    5.8550    0.7656    0.0000 C   0  0  0  0  0  0  0  0  0  0  0  0
    6.1279   -0.9897    0.0000 C   0  0  0  0  0  0  0  0  0  0  0  0
    3.7320    0.0103    0.0000 C   0  0  0  0  0  0  0  0  0  0  0  0
    3.7320   -1.9897    0.0000 C   0  0  0  0  0  0  0  0  0  0  0  0
    2.8660   -0.4897    0.0000 C   0  0  0  0  0  0  0  0  0  0  0  0
    2.8660   -1.4897    0.0000 C   0  0  0  0  0  0  0  0  0  0  0  0
    6.8335    0.9718    0.0000 C   0  0  0  0  0  0  0  0  0  0  0  0
    5.8344    1.3852    0.0000 H   0  0  0  0  0  0  0  0  0  0  0  0
    5.2411    0.8529    0.0000 H   0  0  0  0  0  0  0  0  0  0  0  0
    6.7479   -0.9897    0.0000 H   0  0  0  0  0  0  0  0  0  0  0  0
    5.7369   -2.3838    0.0000 H   0  0  0  0  0  0  0  0  0  0  0  0
    3.7320    0.6303    0.0000 H   0  0  0  0  0  0  0  0  0  0  0  0
    3.7320   -2.6097    0.0000 H   0  0  0  0  0  0  0  0  0  0  0  0
    2.3291   -1.7997    0.0000 H   0  0  0  0  0  0  0  0  0  0  0  0
    7.7508    2.0502    0.0000 H   0  0  0  0  0  0  0  0  0  0  0  0
    6.7301    2.3838    0.0000 H   0  0  0  0  0  0  0  0  0  0  0  0
  1 12  1  0  0  0  0
  2 14  2  0  0  0  0
  3  7  1  0  0  0  0
  3  9  1  0  0  0  0
  3 18  1  0  0  0  0
  4 14  1  0  0  0  0
  4 22  1  0  0  0  0
  4 23  1  0  0  0  0
  5  6  1  0  0  0  0
  5  7  2  0  0  0  0
  5 10  1  0  0  0  0
  6  8  1  0  0  0  0
  6  9  2  0  0  0  0
  7 11  1  0  0  0  0
  8 14  1  0  0  0  0
  8 15  1  0  0  0  0
  8 16  1  0  0  0  0
  9 17  1  0  0  0  0
 10 12  2  0  0  0  0
 10 19  1  0  0  0  0
 11 13  2  0  0  0  0
 11 20  1  0  0  0  0
 12 13  1  0  0  0  0
 13 21  1  0  0  0  0
M  END
> <PUBCHEM_COMPOUND_CID>
24905110

> <PUBCHEM_COMPOUND_CANONICALIZED>
1

> <PUBCHEM_CACTVS_COMPLEXITY>
234

> <PUBCHEM_CACTVS_HBOND_ACCEPTOR>
1

> <PUBCHEM_CACTVS_HBOND_DONOR>
2

> <PUBCHEM_CACTVS_ROTATABLE_BOND>
2

> <PUBCHEM_CACTVS_SUBSKEYS>
AAADccBzIAAEAAAAAAAAAAAAAAAAAWAAAAAwAAAAAAAAAFgB8AAAHgIQAAAADArBniQ8wPLJkACoAzV3VACCgCAxByAI2aE4ZpgIIPLBl5GEIAhgkADIyAccicCegABAIAACAAAAAIBAAAQAAAAAAAAAAA==

> <PUBCHEM_IUPAC_OPENEYE_NAME>
2-(5-chloro-1H-indol-3-yl)acetamide

> <PUBCHEM_IUPAC_CAS_NAME>
2-(5-chloro-1H-indol-3-yl)acetamide

> <PUBCHEM_IUPAC_NAME>
2-(5-chloro-1H-indol-3-yl)acetamide

> <PUBCHEM_IUPAC_SYSTEMATIC_NAME>
2-(5-chloranyl-1H-indol-3-yl)ethanamide

> <PUBCHEM_IUPAC_TRADITIONAL_NAME>
2-(5-chloro-1H-indol-3-yl)acetamide

> <PUBCHEM_IUPAC_INCHI>
InChI=1S/C10H9ClN2O/c11-7-1-2-9-8(4-7)6(5-13-9)3-10(12)14/h1-2,4-5,13H,3H2,(H2,12,14)

> <PUBCHEM_IUPAC_INCHIKEY>
AEASRZZLNXUGPD-UHFFFAOYSA-N

> <PUBCHEM_XLOGP3>
1.4

> <PUBCHEM_EXACT_MASS>
208.040341

> <PUBCHEM_MOLECULAR_FORMULA>
C10H9ClN2O

> <PUBCHEM_MOLECULAR_WEIGHT>
208.64426

> <PUBCHEM_OPENEYE_CAN_SMILES>
C1=CC2=C(C=C1Cl)C(=CN2)CC(=O)N

> <PUBCHEM_OPENEYE_ISO_SMILES>
C1=CC2=C(C=C1Cl)C(=CN2)CC(=O)N

> <PUBCHEM_CACTVS_TPSA>
58.9

> <PUBCHEM_MONOISOTOPIC_WEIGHT>
208.040341

> <PUBCHEM_TOTAL_CHARGE>
0

> <PUBCHEM_HEAVY_ATOM_COUNT>
14

> <PUBCHEM_ATOM_DEF_STEREO_COUNT>
0

> <PUBCHEM_ATOM_UDEF_STEREO_COUNT>
0

> <PUBCHEM_BOND_DEF_STEREO_COUNT>
0

> <PUBCHEM_BOND_UDEF_STEREO_COUNT>
0

> <PUBCHEM_ISOTOPIC_ATOM_COUNT>
0

> <PUBCHEM_COMPONENT_COUNT>
1

> <PUBCHEM_CACTVS_TAUTO_COUNT>
3

> <PUBCHEM_COORDINATE_TYPE>
1
5
255

> <PUBCHEM_BONDANNOTATIONS>
10  12  8
11  13  8
12  13  8
3  7  8
3  9  8
5  10  8
5  6  8
5  7  8
6  9  8
7  11  8

$$$$
24905117
  -OEChem-12041211252D

 26 27  0     0  0  0  0  0  0999 V2000
    7.5013    0.2275    0.0000 O   0  0  0  0  0  0  0  0  0  0  0  0
    5.5443   -1.7944    0.0000 N   0  0  0  0  0  0  0  0  0  0  0  0
    7.1441    1.9223    0.0000 N   0  0  0  0  0  0  0  0  0  0  0  0
    4.5981   -0.4897    0.0000 C   0  0  0  0  0  0  0  0  0  0  0  0
    5.5443   -0.1850    0.0000 C   0  0  0  0  0  0  0  0  0  0  0  0
    4.5981   -1.4897    0.0000 C   0  0  0  0  0  0  0  0  0  0  0  0
    6.1279   -0.9897    0.0000 C   0  0  0  0  0  0  0  0  0  0  0  0
    5.8550    0.7656    0.0000 C   0  0  0  0  0  0  0  0  0  0  0  0
    3.7320   -1.9897    0.0000 C   0  0  0  0  0  0  0  0  0  0  0  0
    3.7320    0.0103    0.0000 C   0  0  0  0  0  0  0  0  0  0  0  0
    2.8660   -1.4897    0.0000 C   0  0  0  0  0  0  0  0  0  0  0  0
    2.8660   -0.4897    0.0000 C   0  0  0  0  0  0  0  0  0  0  0  0
    2.0000   -1.9897    0.0000 C   0  0  0  0  0  0  0  0  0  0  0  0
    6.8335    0.9718    0.0000 C   0  0  0  0  0  0  0  0  0  0  0  0
    5.8344    1.3852    0.0000 H   0  0  0  0  0  0  0  0  0  0  0  0
    5.2411    0.8529    0.0000 H   0  0  0  0  0  0  0  0  0  0  0  0
    6.7479   -0.9897    0.0000 H   0  0  0  0  0  0  0  0  0  0  0  0
    5.7369   -2.3838    0.0000 H   0  0  0  0  0  0  0  0  0  0  0  0
    3.7320   -2.6097    0.0000 H   0  0  0  0  0  0  0  0  0  0  0  0
    3.7320    0.6303    0.0000 H   0  0  0  0  0  0  0  0  0  0  0  0
    2.3291   -0.1797    0.0000 H   0  0  0  0  0  0  0  0  0  0  0  0
    1.6900   -1.4528    0.0000 H   0  0  0  0  0  0  0  0  0  0  0  0
    1.4631   -2.2997    0.0000 H   0  0  0  0  0  0  0  0  0  0  0  0
    2.3100   -2.5266    0.0000 H   0  0  0  0  0  0  0  0  0  0  0  0
    7.7508    2.0502    0.0000 H   0  0  0  0  0  0  0  0  0  0  0  0
    6.7301    2.3838    0.0000 H   0  0  0  0  0  0  0  0  0  0  0  0
  1 14  2  0  0  0  0
  2  6  1  0  0  0  0
  2  7  1  0  0  0  0
  2 18  1  0  0  0  0
  3 14  1  0  0  0  0
  3 25  1  0  0  0  0
  3 26  1  0  0  0  0
  4  5  1  0  0  0  0
  4  6  2  0  0  0  0
  4 10  1  0  0  0  0
  5  7  2  0  0  0  0
  5  8  1  0  0  0  0
  6  9  1  0  0  0  0
  7 17  1  0  0  0  0
  8 14  1  0  0  0  0
  8 15  1  0  0  0  0
  8 16  1  0  0  0  0
  9 11  2  0  0  0  0
  9 19  1  0  0  0  0
 10 12  2  0  0  0  0
 10 20  1  0  0  0  0
 11 12  1  0  0  0  0
 11 13  1  0  0  0  0
 12 21  1  0  0  0  0
 13 22  1  0  0  0  0
 13 23  1  0  0  0  0
 13 24  1  0  0  0  0
M  END
> <PUBCHEM_COMPOUND_CID>
24905117

> <PUBCHEM_COMPOUND_CANONICALIZED>
1

> <PUBCHEM_CACTVS_COMPLEXITY>
229

> <PUBCHEM_CACTVS_HBOND_ACCEPTOR>
1

> <PUBCHEM_CACTVS_HBOND_DONOR>
2

> <PUBCHEM_CACTVS_ROTATABLE_BOND>
2

> <PUBCHEM_CACTVS_SUBSKEYS>
AAADccBzIAAAAAAAAAAAAAAAAAAAAWAAAAAwAAAAAAAAAFgB8AAAHgAQAAAADAjBngQ+wPLJkACoAzV3VACCgCAxAiAI2aE4ZJgIIPLAlZGEIAhgkADIyAccicCewAAAQAACAACAAACAAAQAAAAAAAAAAA==

> <PUBCHEM_IUPAC_OPENEYE_NAME>
2-(6-methyl-1H-indol-3-yl)acetamide

> <PUBCHEM_IUPAC_CAS_NAME>
2-(6-methyl-1H-indol-3-yl)acetamide

> <PUBCHEM_IUPAC_NAME>
2-(6-methyl-1H-indol-3-yl)acetamide

> <PUBCHEM_IUPAC_SYSTEMATIC_NAME>
2-(6-methyl-1H-indol-3-yl)ethanamide

> <PUBCHEM_IUPAC_TRADITIONAL_NAME>
2-(6-methyl-1H-indol-3-yl)acetamide

> <PUBCHEM_IUPAC_INCHI>
InChI=1S/C11H12N2O/c1-7-2-3-9-8(5-11(12)14)6-13-10(9)4-7/h2-4,6,13H,5H2,1H3,(H2,12,14)

> <PUBCHEM_IUPAC_INCHIKEY>
OMKUXKOULGYASX-UHFFFAOYSA-N

> <PUBCHEM_XLOGP3>
1.1

> <PUBCHEM_EXACT_MASS>
188.094963

> <PUBCHEM_MOLECULAR_FORMULA>
C11H12N2O

> <PUBCHEM_MOLECULAR_WEIGHT>
188.22578

> <PUBCHEM_OPENEYE_CAN_SMILES>
CC1=CC2=C(C=C1)C(=CN2)CC(=O)N

> <PUBCHEM_OPENEYE_ISO_SMILES>
CC1=CC2=C(C=C1)C(=CN2)CC(=O)N

> <PUBCHEM_CACTVS_TPSA>
58.9

> <PUBCHEM_MONOISOTOPIC_WEIGHT>
188.094963

> <PUBCHEM_TOTAL_CHARGE>
0

> <PUBCHEM_HEAVY_ATOM_COUNT>
14

> <PUBCHEM_ATOM_DEF_STEREO_COUNT>
0

> <PUBCHEM_ATOM_UDEF_STEREO_COUNT>
0

> <PUBCHEM_BOND_DEF_STEREO_COUNT>
0

> <PUBCHEM_BOND_UDEF_STEREO_COUNT>
0

> <PUBCHEM_ISOTOPIC_ATOM_COUNT>
0

> <PUBCHEM_COMPONENT_COUNT>
1

> <PUBCHEM_CACTVS_TAUTO_COUNT>
3

> <PUBCHEM_COORDINATE_TYPE>
1
5
255

> <PUBCHEM_BONDANNOTATIONS>
10  12  8
11  12  8
2  6  8
2  7  8
4  10  8
4  5  8
4  6  8
5  7  8
6  9  8
9  11  8

$$$$
24905120
  -OEChem-12041211252D

 23 24  0     0  0  0  0  0  0999 V2000
    2.0000   -1.9897    0.0000 Cl  0  0  0  0  0  0  0  0  0  0  0  0
    7.5013    0.2275    0.0000 O   0  0  0  0  0  0  0  0  0  0  0  0
    5.5443   -1.7944    0.0000 N   0  0  0  0  0  0  0  0  0  0  0  0
    7.1441    1.9223    0.0000 N   0  0  0  0  0  0  0  0  0  0  0  0
    4.5981   -0.4897    0.0000 C   0  0  0  0  0  0  0  0  0  0  0  0
    5.5443   -0.1850    0.0000 C   0  0  0  0  0  0  0  0  0  0  0  0
    4.5981   -1.4897    0.0000 C   0  0  0  0  0  0  0  0  0  0  0  0
    5.8550    0.7656    0.0000 C   0  0  0  0  0  0  0  0  0  0  0  0
    6.1279   -0.9897    0.0000 C   0  0  0  0  0  0  0  0  0  0  0  0
    3.7320    0.0103    0.0000 C   0  0  0  0  0  0  0  0  0  0  0  0
    3.7320   -1.9897    0.0000 C   0  0  0  0  0  0  0  0  0  0  0  0
    2.8660   -0.4897    0.0000 C   0  0  0  0  0  0  0  0  0  0  0  0
    2.8660   -1.4897    0.0000 C   0  0  0  0  0  0  0  0  0  0  0  0
    6.8335    0.9718    0.0000 C   0  0  0  0  0  0  0  0  0  0  0  0
    5.8344    1.3852    0.0000 H   0  0  0  0  0  0  0  0  0  0  0  0
    5.2411    0.8529    0.0000 H   0  0  0  0  0  0  0  0  0  0  0  0
    6.7479   -0.9897    0.0000 H   0  0  0  0  0  0  0  0  0  0  0  0
    5.7369   -2.3838    0.0000 H   0  0  0  0  0  0  0  0  0  0  0  0
    3.7320    0.6303    0.0000 H   0  0  0  0  0  0  0  0  0  0  0  0
    3.7320   -2.6097    0.0000 H   0  0  0  0  0  0  0  0  0  0  0  0
    2.3291   -0.1797    0.0000 H   0  0  0  0  0  0  0  0  0  0  0  0
    7.7508    2.0502    0.0000 H   0  0  0  0  0  0  0  0  0  0  0  0
    6.7301    2.3838    0.0000 H   0  0  0  0  0  0  0  0  0  0  0  0
  1 13  1  0  0  0  0
  2 14  2  0  0  0  0
  3  7  1  0  0  0  0
  3  9  1  0  0  0  0
  3 18  1  0  0  0  0
  4 14  1  0  0  0  0
  4 22  1  0  0  0  0
  4 23  1  0  0  0  0
  5  6  1  0  0  0  0
  5  7  2  0  0  0  0
  5 10  1  0  0  0  0
  6  8  1  0  0  0  0
  6  9  2  0  0  0  0
  7 11  1  0  0  0  0
  8 14  1  0  0  0  0
  8 15  1  0  0  0  0
  8 16  1  0  0  0  0
  9 17  1  0  0  0  0
 10 12  2  0  0  0  0
 10 19  1  0  0  0  0
 11 13  2  0  0  0  0
 11 20  1  0  0  0  0
 12 13  1  0  0  0  0
 12 21  1  0  0  0  0
M  END
> <PUBCHEM_COMPOUND_CID>
24905120

> <PUBCHEM_COMPOUND_CANONICALIZED>
1

> <PUBCHEM_CACTVS_COMPLEXITY>
234

> <PUBCHEM_CACTVS_HBOND_ACCEPTOR>
1

> <PUBCHEM_CACTVS_HBOND_DONOR>
2

> <PUBCHEM_CACTVS_ROTATABLE_BOND>
2

> <PUBCHEM_CACTVS_SUBSKEYS>
AAADccBzIAAEAAAAAAAAAAAAAAAAAWAAAAAwAAAAAAAAAFgB8AAAHgIQAAAADArBniQ8wPLJkACoAzV3VACCgCAxByAI2aE4ZpgIIPLBl5GEIAhgkADIyAccicCehAAAAAICAAAIAAAABAQAAAAAAAAAAA==

> <PUBCHEM_IUPAC_OPENEYE_NAME>
2-(6-chloro-1H-indol-3-yl)acetamide

> <PUBCHEM_IUPAC_CAS_NAME>
2-(6-chloro-1H-indol-3-yl)acetamide

> <PUBCHEM_IUPAC_NAME>
2-(6-chloro-1H-indol-3-yl)acetamide

> <PUBCHEM_IUPAC_SYSTEMATIC_NAME>
2-(6-chloranyl-1H-indol-3-yl)ethanamide

> <PUBCHEM_IUPAC_TRADITIONAL_NAME>
2-(6-chloro-1H-indol-3-yl)acetamide

> <PUBCHEM_IUPAC_INCHI>
InChI=1S/C10H9ClN2O/c11-7-1-2-8-6(3-10(12)14)5-13-9(8)4-7/h1-2,4-5,13H,3H2,(H2,12,14)

> <PUBCHEM_IUPAC_INCHIKEY>
VCGNIMBCQJDBKM-UHFFFAOYSA-N

> <PUBCHEM_XLOGP3>
1.4

> <PUBCHEM_EXACT_MASS>
208.040341

> <PUBCHEM_MOLECULAR_FORMULA>
C10H9ClN2O

> <PUBCHEM_MOLECULAR_WEIGHT>
208.64426

> <PUBCHEM_OPENEYE_CAN_SMILES>
C1=CC2=C(C=C1Cl)NC=C2CC(=O)N

> <PUBCHEM_OPENEYE_ISO_SMILES>
C1=CC2=C(C=C1Cl)NC=C2CC(=O)N

> <PUBCHEM_CACTVS_TPSA>
58.9

> <PUBCHEM_MONOISOTOPIC_WEIGHT>
208.040341

> <PUBCHEM_TOTAL_CHARGE>
0

> <PUBCHEM_HEAVY_ATOM_COUNT>
14

> <PUBCHEM_ATOM_DEF_STEREO_COUNT>
0

> <PUBCHEM_ATOM_UDEF_STEREO_COUNT>
0

> <PUBCHEM_BOND_DEF_STEREO_COUNT>
0

> <PUBCHEM_BOND_UDEF_STEREO_COUNT>
0

> <PUBCHEM_ISOTOPIC_ATOM_COUNT>
0

> <PUBCHEM_COMPONENT_COUNT>
1

> <PUBCHEM_CACTVS_TAUTO_COUNT>
3

> <PUBCHEM_COORDINATE_TYPE>
1
5
255

> <PUBCHEM_BONDANNOTATIONS>
10  12  8
11  13  8
12  13  8
3  7  8
3  9  8
5  10  8
5  6  8
5  7  8
6  9  8
7  11  8

$$$$
