63900319
  -OEChem-11301218232D

 35 36  0     1  0  0  0  0  0999 V2000
    3.7320    1.0000    0.0000 O   0  0  0  0  0  0  0  0  0  0  0  0
    4.5981    0.5000    0.0000 C   0  0  3  0  0  0  0  0  0  0  0  0
    4.5981   -0.5000    0.0000 C   0  0  0  0  0  0  0  0  0  0  0  0
    3.7320   -1.0000    0.0000 C   0  0  0  0  0  0  0  0  0  0  0  0
    5.4641    1.0000    0.0000 C   0  0  0  0  0  0  0  0  0  0  0  0
    2.8660   -0.5000    0.0000 C   0  0  0  0  0  0  0  0  0  0  0  0
    5.4641   -1.0000    0.0000 C   0  0  0  0  0  0  0  0  0  0  0  0
    6.3301    0.5000    0.0000 C   0  0  0  0  0  0  0  0  0  0  0  0
    3.7320   -2.0000    0.0000 C   0  0  0  0  0  0  0  0  0  0  0  0
    5.4641    2.0000    0.0000 C   0  0  0  0  0  0  0  0  0  0  0  0
    7.1962    1.0000    0.0000 C   0  0  0  0  0  0  0  0  0  0  0  0
    5.4641   -2.0000    0.0000 C   0  0  0  0  0  0  0  0  0  0  0  0
    4.5981   -2.5000    0.0000 C   0  0  0  0  0  0  0  0  0  0  0  0
    2.0000   -1.0000    0.0000 C   0  0  0  0  0  0  0  0  0  0  0  0
    6.3301    2.5000    0.0000 C   0  0  0  0  0  0  0  0  0  0  0  0
    7.1962    2.0000    0.0000 C   0  0  0  0  0  0  0  0  0  0  0  0
    8.0622    0.5000    0.0000 C   0  0  0  0  0  0  0  0  0  0  0  0
    4.5981    1.1200    0.0000 H   0  0  0  0  0  0  0  0  0  0  0  0
    3.2646   -0.0251    0.0000 H   0  0  0  0  0  0  0  0  0  0  0  0
    2.4675   -0.0251    0.0000 H   0  0  0  0  0  0  0  0  0  0  0  0
    6.0010   -0.6900    0.0000 H   0  0  0  0  0  0  0  0  0  0  0  0
    6.3301   -0.1200    0.0000 H   0  0  0  0  0  0  0  0  0  0  0  0
    3.1951   -2.3100    0.0000 H   0  0  0  0  0  0  0  0  0  0  0  0
    4.9272    2.3100    0.0000 H   0  0  0  0  0  0  0  0  0  0  0  0
    6.0010   -2.3100    0.0000 H   0  0  0  0  0  0  0  0  0  0  0  0
    4.5981   -3.1200    0.0000 H   0  0  0  0  0  0  0  0  0  0  0  0
    1.6900   -0.4631    0.0000 H   0  0  0  0  0  0  0  0  0  0  0  0
    1.4631   -1.3100    0.0000 H   0  0  0  0  0  0  0  0  0  0  0  0
    2.3100   -1.5369    0.0000 H   0  0  0  0  0  0  0  0  0  0  0  0
    6.3301    3.1200    0.0000 H   0  0  0  0  0  0  0  0  0  0  0  0
    7.7331    2.3100    0.0000 H   0  0  0  0  0  0  0  0  0  0  0  0
    3.7320    1.6200    0.0000 H   0  0  0  0  0  0  0  0  0  0  0  0
    7.7522   -0.0369    0.0000 H   0  0  0  0  0  0  0  0  0  0  0  0
    8.5991    0.1900    0.0000 H   0  0  0  0  0  0  0  0  0  0  0  0
    8.3722    1.0369    0.0000 H   0  0  0  0  0  0  0  0  0  0  0  0
  1  2  1  0  0  0  0
  1 32  1  0  0  0  0
  2  3  1  0  0  0  0
  2  5  1  0  0  0  0
  2 18  1  0  0  0  0
  3  4  1  0  0  0  0
  3  7  2  0  0  0  0
  4  6  1  0  0  0  0
  4  9  2  0  0  0  0
  5  8  1  0  0  0  0
  5 10  2  0  0  0  0
  6 14  1  0  0  0  0
  6 19  1  0  0  0  0
  6 20  1  0  0  0  0
  7 12  1  0  0  0  0
  7 21  1  0  0  0  0
  8 11  2  0  0  0  0
  8 22  1  0  0  0  0
  9 13  1  0  0  0  0
  9 23  1  0  0  0  0
 10 15  1  0  0  0  0
 10 24  1  0  0  0  0
 11 16  1  0  0  0  0
 11 17  1  0  0  0  0
 12 13  2  0  0  0  0
 12 25  1  0  0  0  0
 13 26  1  0  0  0  0
 14 27  1  0  0  0  0
 14 28  1  0  0  0  0
 14 29  1  0  0  0  0
 15 16  2  0  0  0  0
 15 30  1  0  0  0  0
 16 31  1  0  0  0  0
 17 33  1  0  0  0  0
 17 34  1  0  0  0  0
 17 35  1  0  0  0  0
M  END
> <PUBCHEM_COMPOUND_CID>
63900319

> <PUBCHEM_COMPOUND_CANONICALIZED>
1

> <PUBCHEM_CACTVS_COMPLEXITY>
226

> <PUBCHEM_CACTVS_HBOND_ACCEPTOR>
1

> <PUBCHEM_CACTVS_HBOND_DONOR>
1

> <PUBCHEM_CACTVS_ROTATABLE_BOND>
3

> <PUBCHEM_CACTVS_SUBSKEYS>
AAADceB4IAAAAAAAAAAAAAAAAAAAAAAAAAAwYAAAAAAAAAABQAAAGgAACAAADBSgmAIyAIAAAgCAAiBCAAACAAAgAAAIiAAACIgINiKAERCAcAAkwAEImAeAwOAOgAACAAAQAAAAAAQAACAAAAAAAAAAAA==

> <PUBCHEM_IUPAC_OPENEYE_NAME>
(2-ethylphenyl)-(m-tolyl)methanol

> <PUBCHEM_IUPAC_CAS_NAME>
(2-ethylphenyl)-(3-methylphenyl)methanol

> <PUBCHEM_IUPAC_NAME>
(2-ethylphenyl)-(3-methylphenyl)methanol

> <PUBCHEM_IUPAC_SYSTEMATIC_NAME>
(2-ethylphenyl)-(3-methylphenyl)methanol

> <PUBCHEM_IUPAC_TRADITIONAL_NAME>
(2-ethylphenyl)-(m-tolyl)methanol

> <PUBCHEM_IUPAC_INCHI>
InChI=1S/C16H18O/c1-3-13-8-4-5-10-15(13)16(17)14-9-6-7-12(2)11-14/h4-11,16-17H,3H2,1-2H3

> <PUBCHEM_IUPAC_INCHIKEY>
CDKBQADSRPLSRM-UHFFFAOYSA-N

> <PUBCHEM_XLOGP3>
3.9

> <PUBCHEM_EXACT_MASS>
226.135765

> <PUBCHEM_MOLECULAR_FORMULA>
C16H18O

> <PUBCHEM_MOLECULAR_WEIGHT>
226.31352

> <PUBCHEM_OPENEYE_CAN_SMILES>
CCC1=CC=CC=C1C(C2=CC=CC(=C2)C)O

> <PUBCHEM_OPENEYE_ISO_SMILES>
CCC1=CC=CC=C1C(C2=CC=CC(=C2)C)O

> <PUBCHEM_CACTVS_TPSA>
20.2

> <PUBCHEM_MONOISOTOPIC_WEIGHT>
226.135765

> <PUBCHEM_TOTAL_CHARGE>
0

> <PUBCHEM_HEAVY_ATOM_COUNT>
17

> <PUBCHEM_ATOM_DEF_STEREO_COUNT>
0

> <PUBCHEM_ATOM_UDEF_STEREO_COUNT>
1

> <PUBCHEM_BOND_DEF_STEREO_COUNT>
0

> <PUBCHEM_BOND_UDEF_STEREO_COUNT>
0

> <PUBCHEM_ISOTOPIC_ATOM_COUNT>
0

> <PUBCHEM_COMPONENT_COUNT>
1

> <PUBCHEM_CACTVS_TAUTO_COUNT>
1

> <PUBCHEM_COORDINATE_TYPE>
1
5
255

> <PUBCHEM_BONDANNOTATIONS>
2  1  3
10  15  8
11  16  8
12  13  8
15  16  8
3  4  8
3  7  8
4  9  8
5  10  8
5  8  8
7  12  8
8  11  8
9  13  8

$$$$
63900540
  -OEChem-11301218232D

 29 30  0     1  0  0  0  0  0999 V2000
    5.4641   -2.5000    0.0000 Cl  0  0  0  0  0  0  0  0  0  0  0  0
    2.0000   -2.5000    0.0000 Cl  0  0  0  0  0  0  0  0  0  0  0  0
    2.8660    1.0000    0.0000 O   0  0  0  0  0  0  0  0  0  0  0  0
    3.7320    0.5000    0.0000 C   0  0  3  0  0  0  0  0  0  0  0  0
    4.5981    1.0000    0.0000 C   0  0  0  0  0  0  0  0  0  0  0  0
    3.7320   -0.5000    0.0000 C   0  0  0  0  0  0  0  0  0  0  0  0
    5.4641    0.5000    0.0000 C   0  0  0  0  0  0  0  0  0  0  0  0
    4.5981    2.0000    0.0000 C   0  0  0  0  0  0  0  0  0  0  0  0
    2.8660   -1.0000    0.0000 C   0  0  0  0  0  0  0  0  0  0  0  0
    4.5981   -1.0000    0.0000 C   0  0  0  0  0  0  0  0  0  0  0  0
    6.3301    1.0000    0.0000 C   0  0  0  0  0  0  0  0  0  0  0  0
    5.4641   -0.5000    0.0000 C   0  0  0  0  0  0  0  0  0  0  0  0
    5.4641    2.5000    0.0000 C   0  0  0  0  0  0  0  0  0  0  0  0
    6.3301    2.0000    0.0000 C   0  0  0  0  0  0  0  0  0  0  0  0
    4.5981   -2.0000    0.0000 C   0  0  0  0  0  0  0  0  0  0  0  0
    2.8660   -2.0000    0.0000 C   0  0  0  0  0  0  0  0  0  0  0  0
    3.7320   -2.5000    0.0000 C   0  0  0  0  0  0  0  0  0  0  0  0
    3.7320    1.1200    0.0000 H   0  0  0  0  0  0  0  0  0  0  0  0
    4.0611    2.3100    0.0000 H   0  0  0  0  0  0  0  0  0  0  0  0
    2.3291   -0.6900    0.0000 H   0  0  0  0  0  0  0  0  0  0  0  0
    5.1350   -0.6900    0.0000 H   0  0  0  0  0  0  0  0  0  0  0  0
    6.8671    0.6900    0.0000 H   0  0  0  0  0  0  0  0  0  0  0  0
    4.8441   -0.5000    0.0000 H   0  0  0  0  0  0  0  0  0  0  0  0
    5.4641   -1.1200    0.0000 H   0  0  0  0  0  0  0  0  0  0  0  0
    6.0841   -0.5000    0.0000 H   0  0  0  0  0  0  0  0  0  0  0  0
    5.4641    3.1200    0.0000 H   0  0  0  0  0  0  0  0  0  0  0  0
    6.8671    2.3100    0.0000 H   0  0  0  0  0  0  0  0  0  0  0  0
    2.8660    1.6200    0.0000 H   0  0  0  0  0  0  0  0  0  0  0  0
    3.7320   -3.1200    0.0000 H   0  0  0  0  0  0  0  0  0  0  0  0
  1 15  1  0  0  0  0
  2 16  1  0  0  0  0
  3  4  1  0  0  0  0
  3 28  1  0  0  0  0
  4  5  1  0  0  0  0
  4  6  1  0  0  0  0
  4 18  1  0  0  0  0
  5  7  1  0  0  0  0
  5  8  2  0  0  0  0
  6  9  2  0  0  0  0
  6 10  1  0  0  0  0
  7 11  2  0  0  0  0
  7 12  1  0  0  0  0
  8 13  1  0  0  0  0
  8 19  1  0  0  0  0
  9 16  1  0  0  0  0
  9 20  1  0  0  0  0
 10 15  2  0  0  0  0
 10 21  1  0  0  0  0
 11 14  1  0  0  0  0
 11 22  1  0  0  0  0
 12 23  1  0  0  0  0
 12 24  1  0  0  0  0
 12 25  1  0  0  0  0
 13 14  2  0  0  0  0
 13 26  1  0  0  0  0
 14 27  1  0  0  0  0
 15 17  1  0  0  0  0
 16 17  2  0  0  0  0
 17 29  1  0  0  0  0
M  END
> <PUBCHEM_COMPOUND_CID>
63900540

> <PUBCHEM_COMPOUND_CANONICALIZED>
1

> <PUBCHEM_CACTVS_COMPLEXITY>
236

> <PUBCHEM_CACTVS_HBOND_ACCEPTOR>
1

> <PUBCHEM_CACTVS_HBOND_DONOR>
1

> <PUBCHEM_CACTVS_ROTATABLE_BOND>
2

> <PUBCHEM_CACTVS_SUBSKEYS>
AAADccBwIAAGAAAAAAAAAAAAAAAAAAAAAAAwYAAAAAAAAAABQAAAGgIACAAADBagmCIyAIAAAgCAAiBCAAACAAAgBQAIiAAACogINiKBExCAcAAkwAEImAeAwOAOgAAAIACQAAAAAABAASAAAAAAAAAAAA==

> <PUBCHEM_IUPAC_OPENEYE_NAME>
(3,5-dichlorophenyl)-(o-tolyl)methanol

> <PUBCHEM_IUPAC_CAS_NAME>
(3,5-dichlorophenyl)-(2-methylphenyl)methanol

> <PUBCHEM_IUPAC_NAME>
(3,5-dichlorophenyl)-(2-methylphenyl)methanol

> <PUBCHEM_IUPAC_SYSTEMATIC_NAME>
[3,5-bis(chloranyl)phenyl]-(2-methylphenyl)methanol

> <PUBCHEM_IUPAC_TRADITIONAL_NAME>
(3,5-dichlorophenyl)-(o-tolyl)methanol

> <PUBCHEM_IUPAC_INCHI>
InChI=1S/C14H12Cl2O/c1-9-4-2-3-5-13(9)14(17)10-6-11(15)8-12(16)7-10/h2-8,14,17H,1H3

> <PUBCHEM_IUPAC_INCHIKEY>
NVPYHQGFNOABIF-UHFFFAOYSA-N

> <PUBCHEM_XLOGP3>
4.3

> <PUBCHEM_EXACT_MASS>
266.02652

> <PUBCHEM_MOLECULAR_FORMULA>
C14H12Cl2O

> <PUBCHEM_MOLECULAR_WEIGHT>
267.15048

> <PUBCHEM_OPENEYE_CAN_SMILES>
CC1=CC=CC=C1C(C2=CC(=CC(=C2)Cl)Cl)O

> <PUBCHEM_OPENEYE_ISO_SMILES>
CC1=CC=CC=C1C(C2=CC(=CC(=C2)Cl)Cl)O

> <PUBCHEM_CACTVS_TPSA>
20.2

> <PUBCHEM_MONOISOTOPIC_WEIGHT>
266.02652

> <PUBCHEM_TOTAL_CHARGE>
0

> <PUBCHEM_HEAVY_ATOM_COUNT>
17

> <PUBCHEM_ATOM_DEF_STEREO_COUNT>
0

> <PUBCHEM_ATOM_UDEF_STEREO_COUNT>
1

> <PUBCHEM_BOND_DEF_STEREO_COUNT>
0

> <PUBCHEM_BOND_UDEF_STEREO_COUNT>
0

> <PUBCHEM_ISOTOPIC_ATOM_COUNT>
0

> <PUBCHEM_COMPONENT_COUNT>
1

> <PUBCHEM_CACTVS_TAUTO_COUNT>
1

> <PUBCHEM_COORDINATE_TYPE>
1
5
255

> <PUBCHEM_BONDANNOTATIONS>
10  15  8
11  14  8
13  14  8
15  17  8
16  17  8
4  3  3
5  7  8
5  8  8
6  10  8
6  9  8
7  11  8
8  13  8
9  16  8

$$$$
63902175
  -OEChem-11301218232D

 35 36  0     1  0  0  0  0  0999 V2000
    3.7320    1.0000    0.0000 O   0  0  0  0  0  0  0  0  0  0  0  0
    4.5981    0.5000    0.0000 C   0  0  3  0  0  0  0  0  0  0  0  0
    4.5981   -0.5000    0.0000 C   0  0  0  0  0  0  0  0  0  0  0  0
    3.7320   -1.0000    0.0000 C   0  0  0  0  0  0  0  0  0  0  0  0
    5.4641    1.0000    0.0000 C   0  0  0  0  0  0  0  0  0  0  0  0
    2.8660   -0.5000    0.0000 C   0  0  0  0  0  0  0  0  0  0  0  0
    5.4641   -1.0000    0.0000 C   0  0  0  0  0  0  0  0  0  0  0  0
    3.7320   -2.0000    0.0000 C   0  0  0  0  0  0  0  0  0  0  0  0
    6.3301    0.5000    0.0000 C   0  0  0  0  0  0  0  0  0  0  0  0
    5.4641    2.0000    0.0000 C   0  0  0  0  0  0  0  0  0  0  0  0
    5.4641   -2.0000    0.0000 C   0  0  0  0  0  0  0  0  0  0  0  0
    4.5981   -2.5000    0.0000 C   0  0  0  0  0  0  0  0  0  0  0  0
    7.1962    2.0000    0.0000 C   0  0  0  0  0  0  0  0  0  0  0  0
    2.0000   -1.0000    0.0000 C   0  0  0  0  0  0  0  0  0  0  0  0
    7.1962    1.0000    0.0000 C   0  0  0  0  0  0  0  0  0  0  0  0
    6.3301    2.5000    0.0000 C   0  0  0  0  0  0  0  0  0  0  0  0
    8.0622    2.5000    0.0000 C   0  0  0  0  0  0  0  0  0  0  0  0
    4.5981    1.1200    0.0000 H   0  0  0  0  0  0  0  0  0  0  0  0
    3.2646   -0.0251    0.0000 H   0  0  0  0  0  0  0  0  0  0  0  0
    2.4675   -0.0251    0.0000 H   0  0  0  0  0  0  0  0  0  0  0  0
    6.0010   -0.6900    0.0000 H   0  0  0  0  0  0  0  0  0  0  0  0
    3.1951   -2.3100    0.0000 H   0  0  0  0  0  0  0  0  0  0  0  0
    6.3301   -0.1200    0.0000 H   0  0  0  0  0  0  0  0  0  0  0  0
    4.9272    2.3100    0.0000 H   0  0  0  0  0  0  0  0  0  0  0  0
    6.0010   -2.3100    0.0000 H   0  0  0  0  0  0  0  0  0  0  0  0
    4.5981   -3.1200    0.0000 H   0  0  0  0  0  0  0  0  0  0  0  0
    1.6900   -0.4631    0.0000 H   0  0  0  0  0  0  0  0  0  0  0  0
    1.4631   -1.3100    0.0000 H   0  0  0  0  0  0  0  0  0  0  0  0
    2.3100   -1.5369    0.0000 H   0  0  0  0  0  0  0  0  0  0  0  0
    7.7331    0.6900    0.0000 H   0  0  0  0  0  0  0  0  0  0  0  0
    6.3301    3.1200    0.0000 H   0  0  0  0  0  0  0  0  0  0  0  0
    3.7320    1.6200    0.0000 H   0  0  0  0  0  0  0  0  0  0  0  0
    8.3722    1.9631    0.0000 H   0  0  0  0  0  0  0  0  0  0  0  0
    8.5991    2.8100    0.0000 H   0  0  0  0  0  0  0  0  0  0  0  0
    7.7522    3.0369    0.0000 H   0  0  0  0  0  0  0  0  0  0  0  0
  1  2  1  0  0  0  0
  1 32  1  0  0  0  0
  2  3  1  0  0  0  0
  2  5  1  0  0  0  0
  2 18  1  0  0  0  0
  3  4  1  0  0  0  0
  3  7  2  0  0  0  0
  4  6  1  0  0  0  0
  4  8  2  0  0  0  0
  5  9  2  0  0  0  0
  5 10  1  0  0  0  0
  6 14  1  0  0  0  0
  6 19  1  0  0  0  0
  6 20  1  0  0  0  0
  7 11  1  0  0  0  0
  7 21  1  0  0  0  0
  8 12  1  0  0  0  0
  8 22  1  0  0  0  0
  9 15  1  0  0  0  0
  9 23  1  0  0  0  0
 10 16  2  0  0  0  0
 10 24  1  0  0  0  0
 11 12  2  0  0  0  0
 11 25  1  0  0  0  0
 12 26  1  0  0  0  0
 13 15  2  0  0  0  0
 13 16  1  0  0  0  0
 13 17  1  0  0  0  0
 14 27  1  0  0  0  0
 14 28  1  0  0  0  0
 14 29  1  0  0  0  0
 15 30  1  0  0  0  0
 16 31  1  0  0  0  0
 17 33  1  0  0  0  0
 17 34  1  0  0  0  0
 17 35  1  0  0  0  0
M  END
> <PUBCHEM_COMPOUND_CID>
63902175

> <PUBCHEM_COMPOUND_CANONICALIZED>
1

> <PUBCHEM_CACTVS_COMPLEXITY>
218

> <PUBCHEM_CACTVS_HBOND_ACCEPTOR>
1

> <PUBCHEM_CACTVS_HBOND_DONOR>
1

> <PUBCHEM_CACTVS_ROTATABLE_BOND>
3

> <PUBCHEM_CACTVS_SUBSKEYS>
AAADceB4IAAAAAAAAAAAAAAAAAAAAAAAAAAwYAAAAAAAAAABQAAAGgAACAAADBSgmAIyAIAAAgCAAiBCAAACAAAgAAAIiAAACIgINiKAERCAcAAkwAEImAeAwPAOwAAAAAAQAACAAAAAACAAAAAAAAAAAA==

> <PUBCHEM_IUPAC_OPENEYE_NAME>
(2-ethylphenyl)-(p-tolyl)methanol

> <PUBCHEM_IUPAC_CAS_NAME>
(2-ethylphenyl)-(4-methylphenyl)methanol

> <PUBCHEM_IUPAC_NAME>
(2-ethylphenyl)-(4-methylphenyl)methanol

> <PUBCHEM_IUPAC_SYSTEMATIC_NAME>
(2-ethylphenyl)-(4-methylphenyl)methanol

> <PUBCHEM_IUPAC_TRADITIONAL_NAME>
(2-ethylphenyl)-(p-tolyl)methanol

> <PUBCHEM_IUPAC_INCHI>
InChI=1S/C16H18O/c1-3-13-6-4-5-7-15(13)16(17)14-10-8-12(2)9-11-14/h4-11,16-17H,3H2,1-2H3

> <PUBCHEM_IUPAC_INCHIKEY>
PDSVQEQKVGMSKP-UHFFFAOYSA-N

> <PUBCHEM_XLOGP3>
3.9

> <PUBCHEM_EXACT_MASS>
226.135765

> <PUBCHEM_MOLECULAR_FORMULA>
C16H18O

> <PUBCHEM_MOLECULAR_WEIGHT>
226.31352

> <PUBCHEM_OPENEYE_CAN_SMILES>
CCC1=CC=CC=C1C(C2=CC=C(C=C2)C)O

> <PUBCHEM_OPENEYE_ISO_SMILES>
CCC1=CC=CC=C1C(C2=CC=C(C=C2)C)O

> <PUBCHEM_CACTVS_TPSA>
20.2

> <PUBCHEM_MONOISOTOPIC_WEIGHT>
226.135765

> <PUBCHEM_TOTAL_CHARGE>
0

> <PUBCHEM_HEAVY_ATOM_COUNT>
17

> <PUBCHEM_ATOM_DEF_STEREO_COUNT>
0

> <PUBCHEM_ATOM_UDEF_STEREO_COUNT>
1

> <PUBCHEM_BOND_DEF_STEREO_COUNT>
0

> <PUBCHEM_BOND_UDEF_STEREO_COUNT>
0

> <PUBCHEM_ISOTOPIC_ATOM_COUNT>
0

> <PUBCHEM_COMPONENT_COUNT>
1

> <PUBCHEM_CACTVS_TAUTO_COUNT>
1

> <PUBCHEM_COORDINATE_TYPE>
1
5
255

> <PUBCHEM_BONDANNOTATIONS>
2  1  3
10  16  8
11  12  8
13  15  8
13  16  8
3  4  8
3  7  8
4  8  8
5  10  8
5  9  8
7  11  8
8  12  8
9  15  8

$$$$
63911981
  -OEChem-11301218242D

 31 33  0     0  0  0  0  0  0999 V2000
    6.6353   -0.2281    0.0000 O   0  0  0  0  0  0  0  0  0  0  0  0
    4.6783   -0.6405    0.0000 N   0  0  0  0  0  0  0  0  0  0  0  0
    6.2781    1.4667    0.0000 C   0  0  0  0  0  0  0  0  0  0  0  0
    7.0224    2.1346    0.0000 C   0  0  0  0  0  0  0  0  0  0  0  0
    6.0719    2.4452    0.0000 C   0  0  0  0  0  0  0  0  0  0  0  0
    5.9674    0.5162    0.0000 C   0  0  0  0  0  0  0  0  0  0  0  0
    4.9889    0.3100    0.0000 C   0  0  0  0  0  0  0  0  0  0  0  0
    3.7320   -0.9452    0.0000 C   0  0  0  0  0  0  0  0  0  0  0  0
    5.2619   -1.4452    0.0000 C   0  0  0  0  0  0  0  0  0  0  0  0
    3.7320   -1.9452    0.0000 C   0  0  0  0  0  0  0  0  0  0  0  0
    4.6783   -2.2500    0.0000 C   0  0  0  0  0  0  0  0  0  0  0  0
    2.8660   -0.4452    0.0000 C   0  0  0  0  0  0  0  0  0  0  0  0
    6.2619   -1.4452    0.0000 C   0  0  0  0  0  0  0  0  0  0  0  0
    2.8660   -2.4452    0.0000 C   0  0  0  0  0  0  0  0  0  0  0  0
    2.0000   -0.9452    0.0000 C   0  0  0  0  0  0  0  0  0  0  0  0
    2.0000   -1.9452    0.0000 C   0  0  0  0  0  0  0  0  0  0  0  0
    5.6590    1.5003    0.0000 H   0  0  0  0  0  0  0  0  0  0  0  0
    7.5103    1.7520    0.0000 H   0  0  0  0  0  0  0  0  0  0  0  0
    7.3144    2.6815    0.0000 H   0  0  0  0  0  0  0  0  0  0  0  0
    6.1592    3.0591    0.0000 H   0  0  0  0  0  0  0  0  0  0  0  0
    5.4522    2.4247    0.0000 H   0  0  0  0  0  0  0  0  0  0  0  0
    4.9684    0.9297    0.0000 H   0  0  0  0  0  0  0  0  0  0  0  0
    4.3751    0.3974    0.0000 H   0  0  0  0  0  0  0  0  0  0  0  0
    4.8709   -2.8393    0.0000 H   0  0  0  0  0  0  0  0  0  0  0  0
    2.8660    0.1748    0.0000 H   0  0  0  0  0  0  0  0  0  0  0  0
    6.2619   -2.0652    0.0000 H   0  0  0  0  0  0  0  0  0  0  0  0
    6.8819   -1.4452    0.0000 H   0  0  0  0  0  0  0  0  0  0  0  0
    6.2619   -0.8252    0.0000 H   0  0  0  0  0  0  0  0  0  0  0  0
    2.8660   -3.0652    0.0000 H   0  0  0  0  0  0  0  0  0  0  0  0
    1.4631   -0.6352    0.0000 H   0  0  0  0  0  0  0  0  0  0  0  0
    1.4631   -2.2553    0.0000 H   0  0  0  0  0  0  0  0  0  0  0  0
  1  6  2  0  0  0  0
  2  7  1  0  0  0  0
  2  8  1  0  0  0  0
  2  9  1  0  0  0  0
  3  4  1  0  0  0  0
  3  5  1  0  0  0  0
  3  6  1  0  0  0  0
  3 17  1  0  0  0  0
  4  5  1  0  0  0  0
  4 18  1  0  0  0  0
  4 19  1  0  0  0  0
  5 20  1  0  0  0  0
  5 21  1  0  0  0  0
  6  7  1  0  0  0  0
  7 22  1  0  0  0  0
  7 23  1  0  0  0  0
  8 10  1  0  0  0  0
  8 12  2  0  0  0  0
  9 11  2  0  0  0  0
  9 13  1  0  0  0  0
 10 11  1  0  0  0  0
 10 14  2  0  0  0  0
 11 24  1  0  0  0  0
 12 15  1  0  0  0  0
 12 25  1  0  0  0  0
 13 26  1  0  0  0  0
 13 27  1  0  0  0  0
 13 28  1  0  0  0  0
 14 16  1  0  0  0  0
 14 29  1  0  0  0  0
 15 16  2  0  0  0  0
 15 30  1  0  0  0  0
 16 31  1  0  0  0  0
M  END
> <PUBCHEM_COMPOUND_CID>
63911981

> <PUBCHEM_COMPOUND_CANONICALIZED>
1

> <PUBCHEM_CACTVS_COMPLEXITY>
285

> <PUBCHEM_CACTVS_HBOND_ACCEPTOR>
1

> <PUBCHEM_CACTVS_HBOND_DONOR>
0

> <PUBCHEM_CACTVS_ROTATABLE_BOND>
3

> <PUBCHEM_CACTVS_SUBSKEYS>
AAADccByIAAAAAAAAAAAAAAAGAAAAWAAAAAwAAAAAAAAAFgB8AAAHgAAAAAADQzBngQywPMMEACoA6RyRACCgCAhAiAI2CG4ZJgIIPLAkbGEIAhggADIyAcQgIAOAAAAAAACAAAAAAAAAAQAAAAAAAAAAA==

> <PUBCHEM_IUPAC_OPENEYE_NAME>
1-cyclopropyl-2-(2-methylindol-1-yl)ethanone

> <PUBCHEM_IUPAC_CAS_NAME>
1-cyclopropyl-2-(2-methyl-1-indolyl)ethanone

> <PUBCHEM_IUPAC_NAME>
1-cyclopropyl-2-(2-methylindol-1-yl)ethanone

> <PUBCHEM_IUPAC_SYSTEMATIC_NAME>
1-cyclopropyl-2-(2-methylindol-1-yl)ethanone

> <PUBCHEM_IUPAC_TRADITIONAL_NAME>
1-cyclopropyl-2-(2-methylindol-1-yl)ethanone

> <PUBCHEM_IUPAC_INCHI>
InChI=1S/C14H15NO/c1-10-8-12-4-2-3-5-13(12)15(10)9-14(16)11-6-7-11/h2-5,8,11H,6-7,9H2,1H3

> <PUBCHEM_IUPAC_INCHIKEY>
JRBHIQLNRCKGNE-UHFFFAOYSA-N

> <PUBCHEM_XLOGP3>
3.1

> <PUBCHEM_EXACT_MASS>
213.115364

> <PUBCHEM_MOLECULAR_FORMULA>
C14H15NO

> <PUBCHEM_MOLECULAR_WEIGHT>
213.275

> <PUBCHEM_OPENEYE_CAN_SMILES>
CC1=CC2=CC=CC=C2N1CC(=O)C3CC3

> <PUBCHEM_OPENEYE_ISO_SMILES>
CC1=CC2=CC=CC=C2N1CC(=O)C3CC3

> <PUBCHEM_CACTVS_TPSA>
22

> <PUBCHEM_MONOISOTOPIC_WEIGHT>
213.115364

> <PUBCHEM_TOTAL_CHARGE>
0

> <PUBCHEM_HEAVY_ATOM_COUNT>
16

> <PUBCHEM_ATOM_DEF_STEREO_COUNT>
0

> <PUBCHEM_ATOM_UDEF_STEREO_COUNT>
0

> <PUBCHEM_BOND_DEF_STEREO_COUNT>
0

> <PUBCHEM_BOND_UDEF_STEREO_COUNT>
0

> <PUBCHEM_ISOTOPIC_ATOM_COUNT>
0

> <PUBCHEM_COMPONENT_COUNT>
1

> <PUBCHEM_CACTVS_TAUTO_COUNT>
3

> <PUBCHEM_COORDINATE_TYPE>
1
5
255

> <PUBCHEM_BONDANNOTATIONS>
10  11  8
10  14  8
12  15  8
14  16  8
15  16  8
2  8  8
2  9  8
8  10  8
8  12  8
9  11  8

$$$$
63912634
  -OEChem-11301218242D

 28 30  0     0  0  0  0  0  0999 V2000
    6.6353   -0.2281    0.0000 O   0  0  0  0  0  0  0  0  0  0  0  0
    4.6783   -0.6405    0.0000 N   0  0  0  0  0  0  0  0  0  0  0  0
    6.2781    1.4667    0.0000 C   0  0  0  0  0  0  0  0  0  0  0  0
    7.0224    2.1346    0.0000 C   0  0  0  0  0  0  0  0  0  0  0  0
    6.0719    2.4452    0.0000 C   0  0  0  0  0  0  0  0  0  0  0  0
    5.9674    0.5162    0.0000 C   0  0  0  0  0  0  0  0  0  0  0  0
    4.9889    0.3100    0.0000 C   0  0  0  0  0  0  0  0  0  0  0  0
    3.7320   -0.9452    0.0000 C   0  0  0  0  0  0  0  0  0  0  0  0
    3.7320   -1.9452    0.0000 C   0  0  0  0  0  0  0  0  0  0  0  0
    5.2619   -1.4452    0.0000 C   0  0  0  0  0  0  0  0  0  0  0  0
    4.6783   -2.2500    0.0000 C   0  0  0  0  0  0  0  0  0  0  0  0
    2.8660   -0.4452    0.0000 C   0  0  0  0  0  0  0  0  0  0  0  0
    2.8660   -2.4452    0.0000 C   0  0  0  0  0  0  0  0  0  0  0  0
    2.0000   -0.9452    0.0000 C   0  0  0  0  0  0  0  0  0  0  0  0
    2.0000   -1.9452    0.0000 C   0  0  0  0  0  0  0  0  0  0  0  0
    5.6590    1.5003    0.0000 H   0  0  0  0  0  0  0  0  0  0  0  0
    7.5103    1.7520    0.0000 H   0  0  0  0  0  0  0  0  0  0  0  0
    7.3144    2.6815    0.0000 H   0  0  0  0  0  0  0  0  0  0  0  0
    6.1592    3.0591    0.0000 H   0  0  0  0  0  0  0  0  0  0  0  0
    5.4522    2.4247    0.0000 H   0  0  0  0  0  0  0  0  0  0  0  0
    4.9684    0.9297    0.0000 H   0  0  0  0  0  0  0  0  0  0  0  0
    4.3751    0.3974    0.0000 H   0  0  0  0  0  0  0  0  0  0  0  0
    5.8819   -1.4452    0.0000 H   0  0  0  0  0  0  0  0  0  0  0  0
    4.8709   -2.8393    0.0000 H   0  0  0  0  0  0  0  0  0  0  0  0
    2.8660    0.1748    0.0000 H   0  0  0  0  0  0  0  0  0  0  0  0
    2.8660   -3.0652    0.0000 H   0  0  0  0  0  0  0  0  0  0  0  0
    1.4631   -0.6352    0.0000 H   0  0  0  0  0  0  0  0  0  0  0  0
    1.4631   -2.2553    0.0000 H   0  0  0  0  0  0  0  0  0  0  0  0
  1  6  2  0  0  0  0
  2  7  1  0  0  0  0
  2  8  1  0  0  0  0
  2 10  1  0  0  0  0
  3  4  1  0  0  0  0
  3  5  1  0  0  0  0
  3  6  1  0  0  0  0
  3 16  1  0  0  0  0
  4  5  1  0  0  0  0
  4 17  1  0  0  0  0
  4 18  1  0  0  0  0
  5 19  1  0  0  0  0
  5 20  1  0  0  0  0
  6  7  1  0  0  0  0
  7 21  1  0  0  0  0
  7 22  1  0  0  0  0
  8  9  1  0  0  0  0
  8 12  2  0  0  0  0
  9 11  1  0  0  0  0
  9 13  2  0  0  0  0
 10 11  2  0  0  0  0
 10 23  1  0  0  0  0
 11 24  1  0  0  0  0
 12 14  1  0  0  0  0
 12 25  1  0  0  0  0
 13 15  1  0  0  0  0
 13 26  1  0  0  0  0
 14 15  2  0  0  0  0
 14 27  1  0  0  0  0
 15 28  1  0  0  0  0
M  END
> <PUBCHEM_COMPOUND_CID>
63912634

> <PUBCHEM_COMPOUND_CANONICALIZED>
1

> <PUBCHEM_CACTVS_COMPLEXITY>
259

> <PUBCHEM_CACTVS_HBOND_ACCEPTOR>
1

> <PUBCHEM_CACTVS_HBOND_DONOR>
0

> <PUBCHEM_CACTVS_ROTATABLE_BOND>
3

> <PUBCHEM_CACTVS_SUBSKEYS>
AAADccByIAAAAAAAAAAAAAAAGAAAAWAAAAAwAAAAAAAAAFgB8AAAHgAAAAAADQzBngQ8wPMMEACoA7R3RACCgCAxAiAI2CG4ZJgIIPLAkbGEIAhggADIyAcQgIAOAAAAAAACAAAAAAAAAAQAAAAAAAAAAA==

> <PUBCHEM_IUPAC_OPENEYE_NAME>
1-cyclopropyl-2-indol-1-yl-ethanone

> <PUBCHEM_IUPAC_CAS_NAME>
1-cyclopropyl-2-(1-indolyl)ethanone

> <PUBCHEM_IUPAC_NAME>
1-cyclopropyl-2-indol-1-ylethanone

> <PUBCHEM_IUPAC_SYSTEMATIC_NAME>
1-cyclopropyl-2-indol-1-yl-ethanone

> <PUBCHEM_IUPAC_TRADITIONAL_NAME>
1-cyclopropyl-2-indol-1-yl-ethanone

> <PUBCHEM_IUPAC_INCHI>
InChI=1S/C13H13NO/c15-13(11-5-6-11)9-14-8-7-10-3-1-2-4-12(10)14/h1-4,7-8,11H,5-6,9H2

> <PUBCHEM_IUPAC_INCHIKEY>
LYVYRLQCHLGKFL-UHFFFAOYSA-N

> <PUBCHEM_XLOGP3>
3

> <PUBCHEM_EXACT_MASS>
199.099714

> <PUBCHEM_MOLECULAR_FORMULA>
C13H13NO

> <PUBCHEM_MOLECULAR_WEIGHT>
199.24842

> <PUBCHEM_OPENEYE_CAN_SMILES>
C1CC1C(=O)CN2C=CC3=CC=CC=C32

> <PUBCHEM_OPENEYE_ISO_SMILES>
C1CC1C(=O)CN2C=CC3=CC=CC=C32

> <PUBCHEM_CACTVS_TPSA>
22

> <PUBCHEM_MONOISOTOPIC_WEIGHT>
199.099714

> <PUBCHEM_TOTAL_CHARGE>
0

> <PUBCHEM_HEAVY_ATOM_COUNT>
15

> <PUBCHEM_ATOM_DEF_STEREO_COUNT>
0

> <PUBCHEM_ATOM_UDEF_STEREO_COUNT>
0

> <PUBCHEM_BOND_DEF_STEREO_COUNT>
0

> <PUBCHEM_BOND_UDEF_STEREO_COUNT>
0

> <PUBCHEM_ISOTOPIC_ATOM_COUNT>
0

> <PUBCHEM_COMPONENT_COUNT>
1

> <PUBCHEM_CACTVS_TAUTO_COUNT>
3

> <PUBCHEM_COORDINATE_TYPE>
1
5
255

> <PUBCHEM_BONDANNOTATIONS>
10  11  8
12  14  8
13  15  8
14  15  8
2  10  8
2  8  8
8  12  8
8  9  8
9  11  8
9  13  8

$$$$
