31528947
  -OEChem-06121304422D

 42 44  0     0  0  0  0  0  0999 V2000
    7.9245    0.3551    0.0000 O   0  0  0  0  0  0  0  0  0  0  0  0
    4.6783   -2.8236    0.0000 N   0  0  0  0  0  0  0  0  0  0  0  0
    7.5673    2.0499    0.0000 N   0  0  0  0  0  0  0  0  0  0  0  0
    4.9889   -0.2636    0.0000 C   0  0  0  0  0  0  0  0  0  0  0  0
    4.6783   -1.2141    0.0000 C   0  0  0  0  0  0  0  0  0  0  0  0
    5.9674   -0.0573    0.0000 C   0  0  0  0  0  0  0  0  0  0  0  0
    3.7321   -1.5188    0.0000 C   0  0  0  0  0  0  0  0  0  0  0  0
    6.2781    0.8932    0.0000 C   0  0  0  0  0  0  0  0  0  0  0  0
    3.7321   -2.5188    0.0000 C   0  0  0  0  0  0  0  0  0  0  0  0
    5.2619   -2.0188    0.0000 C   0  0  0  0  0  0  0  0  0  0  0  0
    7.2566    1.0994    0.0000 C   0  0  0  0  0  0  0  0  0  0  0  0
    2.8660   -1.0188    0.0000 C   0  0  0  0  0  0  0  0  0  0  0  0
    2.8660   -3.0188    0.0000 C   0  0  0  0  0  0  0  0  0  0  0  0
    2.0000   -1.5188    0.0000 C   0  0  0  0  0  0  0  0  0  0  0  0
    2.0000   -2.5188    0.0000 C   0  0  0  0  0  0  0  0  0  0  0  0
    8.5458    2.2561    0.0000 C   0  0  0  0  0  0  0  0  0  0  0  0
    6.8994    2.7942    0.0000 C   0  0  0  0  0  0  0  0  0  0  0  0
    8.8564    3.2066    0.0000 C   0  0  0  0  0  0  0  0  0  0  0  0
    9.2136    1.5118    0.0000 C   0  0  0  0  0  0  0  0  0  0  0  0
    9.8349    3.4129    0.0000 C   0  0  0  0  0  0  0  0  0  0  0  0
   10.1921    1.7181    0.0000 C   0  0  0  0  0  0  0  0  0  0  0  0
   10.5028    2.6686    0.0000 C   0  0  0  0  0  0  0  0  0  0  0  0
    4.9684    0.3561    0.0000 H   0  0  0  0  0  0  0  0  0  0  0  0
    4.3751   -0.1762    0.0000 H   0  0  0  0  0  0  0  0  0  0  0  0
    5.9880   -0.6770    0.0000 H   0  0  0  0  0  0  0  0  0  0  0  0
    6.5813   -0.1447    0.0000 H   0  0  0  0  0  0  0  0  0  0  0  0
    6.2575    1.5128    0.0000 H   0  0  0  0  0  0  0  0  0  0  0  0
    5.6643    0.9805    0.0000 H   0  0  0  0  0  0  0  0  0  0  0  0
    5.8819   -2.0188    0.0000 H   0  0  0  0  0  0  0  0  0  0  0  0
    4.8709   -3.4129    0.0000 H   0  0  0  0  0  0  0  0  0  0  0  0
    2.8660   -0.3988    0.0000 H   0  0  0  0  0  0  0  0  0  0  0  0
    2.8660   -3.6388    0.0000 H   0  0  0  0  0  0  0  0  0  0  0  0
    1.4631   -1.2088    0.0000 H   0  0  0  0  0  0  0  0  0  0  0  0
    1.4631   -2.8288    0.0000 H   0  0  0  0  0  0  0  0  0  0  0  0
    7.3609    3.2083    0.0000 H   0  0  0  0  0  0  0  0  0  0  0  0
    6.4854    3.2557    0.0000 H   0  0  0  0  0  0  0  0  0  0  0  0
    6.4380    2.3802    0.0000 H   0  0  0  0  0  0  0  0  0  0  0  0
    8.4424    3.6681    0.0000 H   0  0  0  0  0  0  0  0  0  0  0  0
    9.0210    0.9225    0.0000 H   0  0  0  0  0  0  0  0  0  0  0  0
   10.0276    4.0022    0.0000 H   0  0  0  0  0  0  0  0  0  0  0  0
   10.6062    1.2566    0.0000 H   0  0  0  0  0  0  0  0  0  0  0  0
   11.1095    2.7964    0.0000 H   0  0  0  0  0  0  0  0  0  0  0  0
  1 11  2  0  0  0  0
  2  9  1  0  0  0  0
  2 10  1  0  0  0  0
  2 30  1  0  0  0  0
  3 11  1  0  0  0  0
  3 16  1  0  0  0  0
  3 17  1  0  0  0  0
  4  5  1  0  0  0  0
  4  6  1  0  0  0  0
  4 23  1  0  0  0  0
  4 24  1  0  0  0  0
  5  7  1  0  0  0  0
  5 10  2  0  0  0  0
  6  8  1  0  0  0  0
  6 25  1  0  0  0  0
  6 26  1  0  0  0  0
  7  9  1  0  0  0  0
  7 12  2  0  0  0  0
  8 11  1  0  0  0  0
  8 27  1  0  0  0  0
  8 28  1  0  0  0  0
  9 13  2  0  0  0  0
 10 29  1  0  0  0  0
 12 14  1  0  0  0  0
 12 31  1  0  0  0  0
 13 15  1  0  0  0  0
 13 32  1  0  0  0  0
 14 15  2  0  0  0  0
 14 33  1  0  0  0  0
 15 34  1  0  0  0  0
 16 18  2  0  0  0  0
 16 19  1  0  0  0  0
 17 35  1  0  0  0  0
 17 36  1  0  0  0  0
 17 37  1  0  0  0  0
 18 20  1  0  0  0  0
 18 38  1  0  0  0  0
 19 21  2  0  0  0  0
 19 39  1  0  0  0  0
 20 22  2  0  0  0  0
 20 40  1  0  0  0  0
 21 22  1  0  0  0  0
 21 41  1  0  0  0  0
 22 42  1  0  0  0  0
M  END
> <PUBCHEM_COMPOUND_CID>
31528947

> <PUBCHEM_COMPOUND_CANONICALIZED>
1

> <PUBCHEM_CACTVS_COMPLEXITY>
364

> <PUBCHEM_CACTVS_HBOND_ACCEPTOR>
1

> <PUBCHEM_CACTVS_HBOND_DONOR>
1

> <PUBCHEM_CACTVS_ROTATABLE_BOND>
5

> <PUBCHEM_CACTVS_SUBSKEYS>
AAADceB7IAAAAAAAAAAAAAAAAAAAAWAAAAAwYAAAAAAAAFgB9AAAHgAQAAAADAjBngQ+wPPJkACoAzV3VACCgCAxAiAI2aE4ZJgIIPLAkZGEIAhglgDIyAcYiMCOgAAAAAACAAAAAAAAAAQAAAAAAAAAAA==

> <PUBCHEM_IUPAC_OPENEYE_NAME>
4-(1H-indol-3-yl)-N-methyl-N-phenyl-butanamide

> <PUBCHEM_IUPAC_CAS_NAME>
4-(1H-indol-3-yl)-N-methyl-N-phenylbutanamide

> <PUBCHEM_IUPAC_NAME>
4-(1H-indol-3-yl)-N-methyl-N-phenylbutanamide

> <PUBCHEM_IUPAC_SYSTEMATIC_NAME>
4-(1H-indol-3-yl)-N-methyl-N-phenyl-butanamide

> <PUBCHEM_IUPAC_TRADITIONAL_NAME>
4-(1H-indol-3-yl)-N-methyl-N-phenyl-butyramide

> <PUBCHEM_IUPAC_INCHI>
InChI=1S/C19H20N2O/c1-21(16-9-3-2-4-10-16)19(22)13-7-8-15-14-20-18-12-6-5-11-17(15)18/h2-6,9-12,14,20H,7-8,13H2,1H3

> <PUBCHEM_IUPAC_INCHIKEY>
XRQHGEKXHATQSZ-UHFFFAOYSA-N

> <PUBCHEM_XLOGP3>
3.8

> <PUBCHEM_EXACT_MASS>
292.157563

> <PUBCHEM_MOLECULAR_FORMULA>
C19H20N2O

> <PUBCHEM_MOLECULAR_WEIGHT>
292.3749

> <PUBCHEM_OPENEYE_CAN_SMILES>
CN(C1=CC=CC=C1)C(=O)CCCC2=CNC3=CC=CC=C32

> <PUBCHEM_OPENEYE_ISO_SMILES>
CN(C1=CC=CC=C1)C(=O)CCCC2=CNC3=CC=CC=C32

> <PUBCHEM_CACTVS_TPSA>
36.1

> <PUBCHEM_MONOISOTOPIC_WEIGHT>
292.157563

> <PUBCHEM_TOTAL_CHARGE>
0

> <PUBCHEM_HEAVY_ATOM_COUNT>
22

> <PUBCHEM_ATOM_DEF_STEREO_COUNT>
0

> <PUBCHEM_ATOM_UDEF_STEREO_COUNT>
0

> <PUBCHEM_BOND_DEF_STEREO_COUNT>
0

> <PUBCHEM_BOND_UDEF_STEREO_COUNT>
0

> <PUBCHEM_ISOTOPIC_ATOM_COUNT>
0

> <PUBCHEM_COMPONENT_COUNT>
1

> <PUBCHEM_CACTVS_TAUTO_COUNT>
1

> <PUBCHEM_COORDINATE_TYPE>
1
5
255

> <PUBCHEM_BONDANNOTATIONS>
12  14  8
13  15  8
14  15  8
16  18  8
16  19  8
18  20  8
19  21  8
2  10  8
2  9  8
20  22  8
21  22  8
5  10  8
5  7  8
7  12  8
7  9  8
9  13  8

$$$$
31528994
  -OEChem-06121304422D

 43 45  0     0  0  0  0  0  0999 V2000
    4.6261   -1.5194    0.0000 O   0  0  0  0  0  0  0  0  0  0  0  0
    3.7601    2.9806    0.0000 N   0  0  0  0  0  0  0  0  0  0  0  0
    2.8941   -1.5194    0.0000 N   0  0  0  0  0  0  0  0  0  0  0  0
    3.7601    1.9806    0.0000 C   0  0  0  0  0  0  0  0  0  0  0  0
    2.9511    3.5684    0.0000 C   0  0  0  0  0  0  0  0  0  0  0  0
    4.5691    3.5684    0.0000 C   0  0  0  0  0  0  0  0  0  0  0  0
    3.2601    4.5194    0.0000 C   0  0  0  0  0  0  0  0  0  0  0  0
    4.2601    4.5194    0.0000 C   0  0  0  0  0  0  0  0  0  0  0  0
    4.6261    1.4806    0.0000 C   0  0  0  0  0  0  0  0  0  0  0  0
    2.8941    1.4806    0.0000 C   0  0  0  0  0  0  0  0  0  0  0  0
    3.7601   -0.0194    0.0000 C   0  0  0  0  0  0  0  0  0  0  0  0
    2.0000    3.2594    0.0000 C   0  0  0  0  0  0  0  0  0  0  0  0
    5.5202    3.2594    0.0000 C   0  0  0  0  0  0  0  0  0  0  0  0
    4.6261    0.4806    0.0000 C   0  0  0  0  0  0  0  0  0  0  0  0
    2.8941    0.4806    0.0000 C   0  0  0  0  0  0  0  0  0  0  0  0
    3.7601   -1.0194    0.0000 C   0  0  0  0  0  0  0  0  0  0  0  0
    2.8941   -2.5194    0.0000 C   0  0  0  0  0  0  0  0  0  0  0  0
    2.0280   -1.0194    0.0000 C   0  0  0  0  0  0  0  0  0  0  0  0
    2.0280   -3.0194    0.0000 C   0  0  0  0  0  0  0  0  0  0  0  0
    3.7601   -3.0194    0.0000 C   0  0  0  0  0  0  0  0  0  0  0  0
    2.0280   -4.0194    0.0000 C   0  0  0  0  0  0  0  0  0  0  0  0
    3.7601   -4.0194    0.0000 C   0  0  0  0  0  0  0  0  0  0  0  0
    2.8941   -4.5194    0.0000 C   0  0  0  0  0  0  0  0  0  0  0  0
    2.8957    5.0210    0.0000 H   0  0  0  0  0  0  0  0  0  0  0  0
    4.6245    5.0210    0.0000 H   0  0  0  0  0  0  0  0  0  0  0  0
    5.1630    1.7906    0.0000 H   0  0  0  0  0  0  0  0  0  0  0  0
    2.3571    1.7906    0.0000 H   0  0  0  0  0  0  0  0  0  0  0  0
    1.8084    3.8490    0.0000 H   0  0  0  0  0  0  0  0  0  0  0  0
    1.4103    3.0678    0.0000 H   0  0  0  0  0  0  0  0  0  0  0  0
    2.1916    2.6697    0.0000 H   0  0  0  0  0  0  0  0  0  0  0  0
    5.3286    2.6697    0.0000 H   0  0  0  0  0  0  0  0  0  0  0  0
    6.1098    3.0678    0.0000 H   0  0  0  0  0  0  0  0  0  0  0  0
    5.7117    3.8490    0.0000 H   0  0  0  0  0  0  0  0  0  0  0  0
    5.1630    0.1706    0.0000 H   0  0  0  0  0  0  0  0  0  0  0  0
    2.3571    0.1706    0.0000 H   0  0  0  0  0  0  0  0  0  0  0  0
    2.3380   -0.4825    0.0000 H   0  0  0  0  0  0  0  0  0  0  0  0
    1.4911   -0.7094    0.0000 H   0  0  0  0  0  0  0  0  0  0  0  0
    1.7180   -1.5564    0.0000 H   0  0  0  0  0  0  0  0  0  0  0  0
    1.4911   -2.7094    0.0000 H   0  0  0  0  0  0  0  0  0  0  0  0
    4.2970   -2.7094    0.0000 H   0  0  0  0  0  0  0  0  0  0  0  0
    1.4911   -4.3294    0.0000 H   0  0  0  0  0  0  0  0  0  0  0  0
    4.2970   -4.3294    0.0000 H   0  0  0  0  0  0  0  0  0  0  0  0
    2.8941   -5.1394    0.0000 H   0  0  0  0  0  0  0  0  0  0  0  0
  1 16  2  0  0  0  0
  2  4  1  0  0  0  0
  2  5  1  0  0  0  0
  2  6  1  0  0  0  0
  3 16  1  0  0  0  0
  3 17  1  0  0  0  0
  3 18  1  0  0  0  0
  4  9  2  0  0  0  0
  4 10  1  0  0  0  0
  5  7  2  0  0  0  0
  5 12  1  0  0  0  0
  6  8  2  0  0  0  0
  6 13  1  0  0  0  0
  7  8  1  0  0  0  0
  7 24  1  0  0  0  0
  8 25  1  0  0  0  0
  9 14  1  0  0  0  0
  9 26  1  0  0  0  0
 10 15  2  0  0  0  0
 10 27  1  0  0  0  0
 11 14  2  0  0  0  0
 11 15  1  0  0  0  0
 11 16  1  0  0  0  0
 12 28  1  0  0  0  0
 12 29  1  0  0  0  0
 12 30  1  0  0  0  0
 13 31  1  0  0  0  0
 13 32  1  0  0  0  0
 13 33  1  0  0  0  0
 14 34  1  0  0  0  0
 15 35  1  0  0  0  0
 17 19  2  0  0  0  0
 17 20  1  0  0  0  0
 18 36  1  0  0  0  0
 18 37  1  0  0  0  0
 18 38  1  0  0  0  0
 19 21  1  0  0  0  0
 19 39  1  0  0  0  0
 20 22  2  0  0  0  0
 20 40  1  0  0  0  0
 21 23  2  0  0  0  0
 21 41  1  0  0  0  0
 22 23  1  0  0  0  0
 22 42  1  0  0  0  0
 23 43  1  0  0  0  0
M  END
> <PUBCHEM_COMPOUND_CID>
31528994

> <PUBCHEM_COMPOUND_CANONICALIZED>
1

> <PUBCHEM_CACTVS_COMPLEXITY>
386

> <PUBCHEM_CACTVS_HBOND_ACCEPTOR>
1

> <PUBCHEM_CACTVS_HBOND_DONOR>
0

> <PUBCHEM_CACTVS_ROTATABLE_BOND>
3

> <PUBCHEM_CACTVS_SUBSKEYS>
AAADceB7IAAAAAAAAAAAAAAAAAAAAWAAAAAwYAAAAAAAAAAB0AAAHgAAAAAADAiBngQywJMMEACoAyVyVACCgCAlAiAImCE4ZNgIIPLAlZGEIQhghgDIyYcYiQCeCAAAAAAAAAAQAAAAAAAAAAAAAAAAAA==

> <PUBCHEM_IUPAC_OPENEYE_NAME>
4-(2,5-dimethylpyrrol-1-yl)-N-methyl-N-phenyl-benzamide

> <PUBCHEM_IUPAC_CAS_NAME>
4-(2,5-dimethyl-1-pyrrolyl)-N-methyl-N-phenylbenzamide

> <PUBCHEM_IUPAC_NAME>
4-(2,5-dimethylpyrrol-1-yl)-N-methyl-N-phenylbenzamide

> <PUBCHEM_IUPAC_SYSTEMATIC_NAME>
4-(2,5-dimethylpyrrol-1-yl)-N-methyl-N-phenyl-benzamide

> <PUBCHEM_IUPAC_TRADITIONAL_NAME>
4-(2,5-dimethylpyrrol-1-yl)-N-methyl-N-phenyl-benzamide

> <PUBCHEM_IUPAC_INCHI>
InChI=1S/C20H20N2O/c1-15-9-10-16(2)22(15)19-13-11-17(12-14-19)20(23)21(3)18-7-5-4-6-8-18/h4-14H,1-3H3

> <PUBCHEM_IUPAC_INCHIKEY>
ZVRIUQPXLHCIDI-UHFFFAOYSA-N

> <PUBCHEM_XLOGP3>
3.6

> <PUBCHEM_EXACT_MASS>
304.157563

> <PUBCHEM_MOLECULAR_FORMULA>
C20H20N2O

> <PUBCHEM_MOLECULAR_WEIGHT>
304.3856

> <PUBCHEM_OPENEYE_CAN_SMILES>
CC1=CC=C(N1C2=CC=C(C=C2)C(=O)N(C)C3=CC=CC=C3)C

> <PUBCHEM_OPENEYE_ISO_SMILES>
CC1=CC=C(N1C2=CC=C(C=C2)C(=O)N(C)C3=CC=CC=C3)C

> <PUBCHEM_CACTVS_TPSA>
25.2

> <PUBCHEM_MONOISOTOPIC_WEIGHT>
304.157563

> <PUBCHEM_TOTAL_CHARGE>
0

> <PUBCHEM_HEAVY_ATOM_COUNT>
23

> <PUBCHEM_ATOM_DEF_STEREO_COUNT>
0

> <PUBCHEM_ATOM_UDEF_STEREO_COUNT>
0

> <PUBCHEM_BOND_DEF_STEREO_COUNT>
0

> <PUBCHEM_BOND_UDEF_STEREO_COUNT>
0

> <PUBCHEM_ISOTOPIC_ATOM_COUNT>
0

> <PUBCHEM_COMPONENT_COUNT>
1

> <PUBCHEM_CACTVS_TAUTO_COUNT>
1

> <PUBCHEM_COORDINATE_TYPE>
1
5
255

> <PUBCHEM_BONDANNOTATIONS>
10  15  8
11  14  8
11  15  8
17  19  8
17  20  8
19  21  8
2  5  8
2  6  8
20  22  8
21  23  8
22  23  8
4  10  8
4  9  8
5  7  8
6  8  8
7  8  8
9  14  8

$$$$
