64342794
  -OEChem-11301218252D

 41 42  0     1  0  0  0  0  0999 V2000
    7.1469   -3.9094    0.0000 Br  0  0  0  0  0  0  0  0  0  0  0  0
    2.0000   -1.0990    0.0000 O   0  0  0  0  0  0  0  0  0  0  0  0
    3.6828   -0.9094    0.0000 N   0  0  0  0  0  0  0  0  0  0  0  0
    4.1828    1.2812    0.0000 C   0  0  3  0  0  0  0  0  0  0  0  0
    4.8063    0.4994    0.0000 C   0  0  0  0  0  0  0  0  0  0  0  0
    3.1828    1.2812    0.0000 C   0  0  0  0  0  0  0  0  0  0  0  0
    4.6167    2.1822    0.0000 C   0  0  0  0  0  0  0  0  0  0  0  0
    4.5838   -0.4755    0.0000 C   0  0  0  0  0  0  0  0  0  0  0  0
    2.5593    0.4994    0.0000 C   0  0  0  0  0  0  0  0  0  0  0  0
    2.7818   -0.4755    0.0000 C   0  0  0  0  0  0  0  0  0  0  0  0
    4.0534    3.0084    0.0000 C   0  0  0  0  0  0  0  0  0  0  0  0
    3.6828   -1.9094    0.0000 C   0  0  0  0  0  0  0  0  0  0  0  0
    4.4873    3.9094    0.0000 C   0  0  0  0  0  0  0  0  0  0  0  0
    4.5488   -2.4094    0.0000 C   0  0  0  0  0  0  0  0  0  0  0  0
    5.4149   -1.9094    0.0000 C   0  0  0  0  0  0  0  0  0  0  0  0
    4.5488   -3.4094    0.0000 C   0  0  0  0  0  0  0  0  0  0  0  0
    6.2809   -2.4094    0.0000 C   0  0  0  0  0  0  0  0  0  0  0  0
    5.4149   -3.9094    0.0000 C   0  0  0  0  0  0  0  0  0  0  0  0
    6.2809   -3.4094    0.0000 C   0  0  0  0  0  0  0  0  0  0  0  0
    4.7989    1.3506    0.0000 H   0  0  0  0  0  0  0  0  0  0  0  0
    5.3649    0.2304    0.0000 H   0  0  0  0  0  0  0  0  0  0  0  0
    5.1928    0.9841    0.0000 H   0  0  0  0  0  0  0  0  0  0  0  0
    3.3208    1.8857    0.0000 H   0  0  0  0  0  0  0  0  0  0  0  0
    2.6242    1.5502    0.0000 H   0  0  0  0  0  0  0  0  0  0  0  0
    5.1201    1.8203    0.0000 H   0  0  0  0  0  0  0  0  0  0  0  0
    5.0605    2.6151    0.0000 H   0  0  0  0  0  0  0  0  0  0  0  0
    4.7217   -1.0800    0.0000 H   0  0  0  0  0  0  0  0  0  0  0  0
    5.2038   -0.4755    0.0000 H   0  0  0  0  0  0  0  0  0  0  0  0
    2.1728    0.9841    0.0000 H   0  0  0  0  0  0  0  0  0  0  0  0
    2.0007    0.2304    0.0000 H   0  0  0  0  0  0  0  0  0  0  0  0
    3.5500    3.3704    0.0000 H   0  0  0  0  0  0  0  0  0  0  0  0
    3.6095    2.5755    0.0000 H   0  0  0  0  0  0  0  0  0  0  0  0
    3.0722   -1.8018    0.0000 H   0  0  0  0  0  0  0  0  0  0  0  0
    3.4708   -2.4920    0.0000 H   0  0  0  0  0  0  0  0  0  0  0  0
    5.0458    3.6404    0.0000 H   0  0  0  0  0  0  0  0  0  0  0  0
    4.7563    4.4680    0.0000 H   0  0  0  0  0  0  0  0  0  0  0  0
    3.9286    4.1784    0.0000 H   0  0  0  0  0  0  0  0  0  0  0  0
    5.4149   -1.2894    0.0000 H   0  0  0  0  0  0  0  0  0  0  0  0
    4.0119   -3.7194    0.0000 H   0  0  0  0  0  0  0  0  0  0  0  0
    6.8178   -2.0994    0.0000 H   0  0  0  0  0  0  0  0  0  0  0  0
    5.4149   -4.5294    0.0000 H   0  0  0  0  0  0  0  0  0  0  0  0
  1 19  1  0  0  0  0
  2 10  2  0  0  0  0
  3  8  1  0  0  0  0
  3 10  1  0  0  0  0
  3 12  1  0  0  0  0
  4  5  1  0  0  0  0
  4  6  1  0  0  0  0
  4  7  1  0  0  0  0
  4 20  1  0  0  0  0
  5  8  1  0  0  0  0
  5 21  1  0  0  0  0
  5 22  1  0  0  0  0
  6  9  1  0  0  0  0
  6 23  1  0  0  0  0
  6 24  1  0  0  0  0
  7 11  1  0  0  0  0
  7 25  1  0  0  0  0
  7 26  1  0  0  0  0
  8 27  1  0  0  0  0
  8 28  1  0  0  0  0
  9 10  1  0  0  0  0
  9 29  1  0  0  0  0
  9 30  1  0  0  0  0
 11 13  1  0  0  0  0
 11 31  1  0  0  0  0
 11 32  1  0  0  0  0
 12 14  1  0  0  0  0
 12 33  1  0  0  0  0
 12 34  1  0  0  0  0
 13 35  1  0  0  0  0
 13 36  1  0  0  0  0
 13 37  1  0  0  0  0
 14 15  2  0  0  0  0
 14 16  1  0  0  0  0
 15 17  1  0  0  0  0
 15 38  1  0  0  0  0
 16 18  2  0  0  0  0
 16 39  1  0  0  0  0
 17 19  2  0  0  0  0
 17 40  1  0  0  0  0
 18 19  1  0  0  0  0
 18 41  1  0  0  0  0
M  END
> <PUBCHEM_COMPOUND_CID>
64342794

> <PUBCHEM_COMPOUND_CANONICALIZED>
1

> <PUBCHEM_CACTVS_COMPLEXITY>
287

> <PUBCHEM_CACTVS_HBOND_ACCEPTOR>
1

> <PUBCHEM_CACTVS_HBOND_DONOR>
0

> <PUBCHEM_CACTVS_ROTATABLE_BOND>
4

> <PUBCHEM_CACTVS_SUBSKEYS>
AAADceB6IAAAEAAAAAAAAAAAAAAAAAAAAAAwAAAABYAAAAABAAAAHgBAAAABrQDBmAQyAIMAAACIAiFSEACCAAAgAAQIiAEIBKgIIDKAkRGEIAhghgCIihcYiACOAgAAAAAAAAAEAAAAAAAAAAAAAAAAAA==

> <PUBCHEM_IUPAC_OPENEYE_NAME>
1-[(4-bromophenyl)methyl]-5-propyl-azepan-2-one

> <PUBCHEM_IUPAC_CAS_NAME>
1-[(4-bromophenyl)methyl]-5-propyl-2-azepanone

> <PUBCHEM_IUPAC_NAME>
1-[(4-bromophenyl)methyl]-5-propylazepan-2-one

> <PUBCHEM_IUPAC_SYSTEMATIC_NAME>
1-[(4-bromophenyl)methyl]-5-propyl-azepan-2-one

> <PUBCHEM_IUPAC_TRADITIONAL_NAME>
1-(4-bromobenzyl)-5-propyl-azepan-2-one

> <PUBCHEM_IUPAC_INCHI>
InChI=1S/C16H22BrNO/c1-2-3-13-6-9-16(19)18(11-10-13)12-14-4-7-15(17)8-5-14/h4-5,7-8,13H,2-3,6,9-12H2,1H3

> <PUBCHEM_IUPAC_INCHIKEY>
MLQJWQRUTLCEEA-UHFFFAOYSA-N

> <PUBCHEM_XLOGP3>
4.2

> <PUBCHEM_EXACT_MASS>
323.088476

> <PUBCHEM_MOLECULAR_FORMULA>
C16H22BrNO

> <PUBCHEM_MOLECULAR_WEIGHT>
324.25598

> <PUBCHEM_OPENEYE_CAN_SMILES>
CCCC1CCC(=O)N(CC1)CC2=CC=C(C=C2)Br

> <PUBCHEM_OPENEYE_ISO_SMILES>
CCCC1CCC(=O)N(CC1)CC2=CC=C(C=C2)Br

> <PUBCHEM_CACTVS_TPSA>
20.3

> <PUBCHEM_MONOISOTOPIC_WEIGHT>
323.088476

> <PUBCHEM_TOTAL_CHARGE>
0

> <PUBCHEM_HEAVY_ATOM_COUNT>
19

> <PUBCHEM_ATOM_DEF_STEREO_COUNT>
0

> <PUBCHEM_ATOM_UDEF_STEREO_COUNT>
1

> <PUBCHEM_BOND_DEF_STEREO_COUNT>
0

> <PUBCHEM_BOND_UDEF_STEREO_COUNT>
0

> <PUBCHEM_ISOTOPIC_ATOM_COUNT>
0

> <PUBCHEM_COMPONENT_COUNT>
1

> <PUBCHEM_CACTVS_TAUTO_COUNT>
2

> <PUBCHEM_COORDINATE_TYPE>
1
5
255

> <PUBCHEM_BONDANNOTATIONS>
14  15  8
14  16  8
15  17  8
16  18  8
17  19  8
18  19  8
4  7  3

$$$$
64344787
  -OEChem-11301218252D

 38 39  0     1  0  0  0  0  0999 V2000
    7.1469   -3.4589    0.0000 Br  0  0  0  0  0  0  0  0  0  0  0  0
    2.0000   -0.6485    0.0000 O   0  0  0  0  0  0  0  0  0  0  0  0
    3.6828   -0.4589    0.0000 N   0  0  0  0  0  0  0  0  0  0  0  0
    4.1828    1.7317    0.0000 C   0  0  3  0  0  0  0  0  0  0  0  0
    4.8063    0.9499    0.0000 C   0  0  0  0  0  0  0  0  0  0  0  0
    3.1828    1.7317    0.0000 C   0  0  0  0  0  0  0  0  0  0  0  0
    4.5838   -0.0250    0.0000 C   0  0  0  0  0  0  0  0  0  0  0  0
    4.6167    2.6327    0.0000 C   0  0  0  0  0  0  0  0  0  0  0  0
    2.5593    0.9499    0.0000 C   0  0  0  0  0  0  0  0  0  0  0  0
    2.7818   -0.0250    0.0000 C   0  0  0  0  0  0  0  0  0  0  0  0
    3.6828   -1.4589    0.0000 C   0  0  0  0  0  0  0  0  0  0  0  0
    4.0534    3.4589    0.0000 C   0  0  0  0  0  0  0  0  0  0  0  0
    4.5488   -1.9589    0.0000 C   0  0  0  0  0  0  0  0  0  0  0  0
    5.4149   -1.4589    0.0000 C   0  0  0  0  0  0  0  0  0  0  0  0
    4.5488   -2.9589    0.0000 C   0  0  0  0  0  0  0  0  0  0  0  0
    6.2809   -1.9589    0.0000 C   0  0  0  0  0  0  0  0  0  0  0  0
    5.4149   -3.4589    0.0000 C   0  0  0  0  0  0  0  0  0  0  0  0
    6.2809   -2.9589    0.0000 C   0  0  0  0  0  0  0  0  0  0  0  0
    4.7989    1.8011    0.0000 H   0  0  0  0  0  0  0  0  0  0  0  0
    5.3649    0.6809    0.0000 H   0  0  0  0  0  0  0  0  0  0  0  0
    5.1928    1.4346    0.0000 H   0  0  0  0  0  0  0  0  0  0  0  0
    3.3208    2.3362    0.0000 H   0  0  0  0  0  0  0  0  0  0  0  0
    2.6242    2.0007    0.0000 H   0  0  0  0  0  0  0  0  0  0  0  0
    4.7217   -0.6295    0.0000 H   0  0  0  0  0  0  0  0  0  0  0  0
    5.2038   -0.0250    0.0000 H   0  0  0  0  0  0  0  0  0  0  0  0
    5.1201    2.2708    0.0000 H   0  0  0  0  0  0  0  0  0  0  0  0
    5.0605    3.0656    0.0000 H   0  0  0  0  0  0  0  0  0  0  0  0
    2.1728    1.4346    0.0000 H   0  0  0  0  0  0  0  0  0  0  0  0
    2.0007    0.6809    0.0000 H   0  0  0  0  0  0  0  0  0  0  0  0
    3.0722   -1.3513    0.0000 H   0  0  0  0  0  0  0  0  0  0  0  0
    3.4708   -2.0415    0.0000 H   0  0  0  0  0  0  0  0  0  0  0  0
    4.5656    3.8082    0.0000 H   0  0  0  0  0  0  0  0  0  0  0  0
    3.7041    3.9712    0.0000 H   0  0  0  0  0  0  0  0  0  0  0  0
    3.5411    3.1097    0.0000 H   0  0  0  0  0  0  0  0  0  0  0  0
    5.4149   -0.8389    0.0000 H   0  0  0  0  0  0  0  0  0  0  0  0
    4.0119   -3.2689    0.0000 H   0  0  0  0  0  0  0  0  0  0  0  0
    6.8178   -1.6489    0.0000 H   0  0  0  0  0  0  0  0  0  0  0  0
    5.4149   -4.0789    0.0000 H   0  0  0  0  0  0  0  0  0  0  0  0
  1 18  1  0  0  0  0
  2 10  2  0  0  0  0
  3  7  1  0  0  0  0
  3 10  1  0  0  0  0
  3 11  1  0  0  0  0
  4  5  1  0  0  0  0
  4  6  1  0  0  0  0
  4  8  1  0  0  0  0
  4 19  1  0  0  0  0
  5  7  1  0  0  0  0
  5 20  1  0  0  0  0
  5 21  1  0  0  0  0
  6  9  1  0  0  0  0
  6 22  1  0  0  0  0
  6 23  1  0  0  0  0
  7 24  1  0  0  0  0
  7 25  1  0  0  0  0
  8 12  1  0  0  0  0
  8 26  1  0  0  0  0
  8 27  1  0  0  0  0
  9 10  1  0  0  0  0
  9 28  1  0  0  0  0
  9 29  1  0  0  0  0
 11 13  1  0  0  0  0
 11 30  1  0  0  0  0
 11 31  1  0  0  0  0
 12 32  1  0  0  0  0
 12 33  1  0  0  0  0
 12 34  1  0  0  0  0
 13 14  2  0  0  0  0
 13 15  1  0  0  0  0
 14 16  1  0  0  0  0
 14 35  1  0  0  0  0
 15 17  2  0  0  0  0
 15 36  1  0  0  0  0
 16 18  2  0  0  0  0
 16 37  1  0  0  0  0
 17 18  1  0  0  0  0
 17 38  1  0  0  0  0
M  END
> <PUBCHEM_COMPOUND_CID>
64344787

> <PUBCHEM_COMPOUND_CANONICALIZED>
1

> <PUBCHEM_CACTVS_COMPLEXITY>
274

> <PUBCHEM_CACTVS_HBOND_ACCEPTOR>
1

> <PUBCHEM_CACTVS_HBOND_DONOR>
0

> <PUBCHEM_CACTVS_ROTATABLE_BOND>
3

> <PUBCHEM_CACTVS_SUBSKEYS>
AAADceByIAAAEAAAAAAAAAAAAAAAAAAAAAAwAAAABYAAAAABAAAAHgBAAAABrQDBmAQyAIMAAACIAiFSEACCAAAgAAQIiAEIBKgIIDKAkRGEIAhghgCIihcYiAAOAgAAAAAAAAAEAAAAAAAAAAAAAAAAAA==

> <PUBCHEM_IUPAC_OPENEYE_NAME>
1-[(4-bromophenyl)methyl]-5-ethyl-azepan-2-one

> <PUBCHEM_IUPAC_CAS_NAME>
1-[(4-bromophenyl)methyl]-5-ethyl-2-azepanone

> <PUBCHEM_IUPAC_NAME>
1-[(4-bromophenyl)methyl]-5-ethylazepan-2-one

> <PUBCHEM_IUPAC_SYSTEMATIC_NAME>
1-[(4-bromophenyl)methyl]-5-ethyl-azepan-2-one

> <PUBCHEM_IUPAC_TRADITIONAL_NAME>
1-(4-bromobenzyl)-5-ethyl-azepan-2-one

> <PUBCHEM_IUPAC_INCHI>
InChI=1S/C15H20BrNO/c1-2-12-5-8-15(18)17(10-9-12)11-13-3-6-14(16)7-4-13/h3-4,6-7,12H,2,5,8-11H2,1H3

> <PUBCHEM_IUPAC_INCHIKEY>
BCMGGKHDPKSQFU-UHFFFAOYSA-N

> <PUBCHEM_XLOGP3>
3.6

> <PUBCHEM_EXACT_MASS>
309.072826

> <PUBCHEM_MOLECULAR_FORMULA>
C15H20BrNO

> <PUBCHEM_MOLECULAR_WEIGHT>
310.2294

> <PUBCHEM_OPENEYE_CAN_SMILES>
CCC1CCC(=O)N(CC1)CC2=CC=C(C=C2)Br

> <PUBCHEM_OPENEYE_ISO_SMILES>
CCC1CCC(=O)N(CC1)CC2=CC=C(C=C2)Br

> <PUBCHEM_CACTVS_TPSA>
20.3

> <PUBCHEM_MONOISOTOPIC_WEIGHT>
309.072826

> <PUBCHEM_TOTAL_CHARGE>
0

> <PUBCHEM_HEAVY_ATOM_COUNT>
18

> <PUBCHEM_ATOM_DEF_STEREO_COUNT>
0

> <PUBCHEM_ATOM_UDEF_STEREO_COUNT>
1

> <PUBCHEM_BOND_DEF_STEREO_COUNT>
0

> <PUBCHEM_BOND_UDEF_STEREO_COUNT>
0

> <PUBCHEM_ISOTOPIC_ATOM_COUNT>
0

> <PUBCHEM_COMPONENT_COUNT>
1

> <PUBCHEM_CACTVS_TAUTO_COUNT>
2

> <PUBCHEM_COORDINATE_TYPE>
1
5
255

> <PUBCHEM_BONDANNOTATIONS>
13  14  8
13  15  8
14  16  8
15  17  8
16  18  8
17  18  8
4  8  3

$$$$
64347277
  -OEChem-11301218252D

 41 42  0     1  0  0  0  0  0999 V2000
    7.1469   -3.4589    0.0000 Br  0  0  0  0  0  0  0  0  0  0  0  0
    2.0000   -0.6485    0.0000 O   0  0  0  0  0  0  0  0  0  0  0  0
    3.6828   -0.4589    0.0000 N   0  0  0  0  0  0  0  0  0  0  0  0
    4.1828    1.7317    0.0000 C   0  0  3  0  0  0  0  0  0  0  0  0
    4.8063    0.9499    0.0000 C   0  0  0  0  0  0  0  0  0  0  0  0
    4.6167    2.6327    0.0000 C   0  0  0  0  0  0  0  0  0  0  0  0
    3.1828    1.7317    0.0000 C   0  0  0  0  0  0  0  0  0  0  0  0
    4.5838   -0.0250    0.0000 C   0  0  0  0  0  0  0  0  0  0  0  0
    2.5593    0.9499    0.0000 C   0  0  0  0  0  0  0  0  0  0  0  0
    2.7818   -0.0250    0.0000 C   0  0  0  0  0  0  0  0  0  0  0  0
    4.0534    3.4589    0.0000 C   0  0  0  0  0  0  0  0  0  0  0  0
    5.6139    2.7074    0.0000 C   0  0  0  0  0  0  0  0  0  0  0  0
    3.6828   -1.4589    0.0000 C   0  0  0  0  0  0  0  0  0  0  0  0
    4.5488   -1.9589    0.0000 C   0  0  0  0  0  0  0  0  0  0  0  0
    5.4149   -1.4589    0.0000 C   0  0  0  0  0  0  0  0  0  0  0  0
    4.5488   -2.9589    0.0000 C   0  0  0  0  0  0  0  0  0  0  0  0
    6.2809   -1.9589    0.0000 C   0  0  0  0  0  0  0  0  0  0  0  0
    5.4149   -3.4589    0.0000 C   0  0  0  0  0  0  0  0  0  0  0  0
    6.2809   -2.9589    0.0000 C   0  0  0  0  0  0  0  0  0  0  0  0
    4.7989    1.8011    0.0000 H   0  0  0  0  0  0  0  0  0  0  0  0
    5.3649    0.6809    0.0000 H   0  0  0  0  0  0  0  0  0  0  0  0
    5.1928    1.4346    0.0000 H   0  0  0  0  0  0  0  0  0  0  0  0
    3.9984    2.5864    0.0000 H   0  0  0  0  0  0  0  0  0  0  0  0
    3.3208    2.3362    0.0000 H   0  0  0  0  0  0  0  0  0  0  0  0
    2.6242    2.0007    0.0000 H   0  0  0  0  0  0  0  0  0  0  0  0
    4.7217   -0.6295    0.0000 H   0  0  0  0  0  0  0  0  0  0  0  0
    5.2038   -0.0250    0.0000 H   0  0  0  0  0  0  0  0  0  0  0  0
    2.1728    1.4346    0.0000 H   0  0  0  0  0  0  0  0  0  0  0  0
    2.0007    0.6809    0.0000 H   0  0  0  0  0  0  0  0  0  0  0  0
    5.6602    2.0892    0.0000 H   0  0  0  0  0  0  0  0  0  0  0  0
    4.5656    3.8082    0.0000 H   0  0  0  0  0  0  0  0  0  0  0  0
    6.2322    2.7538    0.0000 H   0  0  0  0  0  0  0  0  0  0  0  0
    5.5676    3.3257    0.0000 H   0  0  0  0  0  0  0  0  0  0  0  0
    3.7041    3.9712    0.0000 H   0  0  0  0  0  0  0  0  0  0  0  0
    3.5411    3.1097    0.0000 H   0  0  0  0  0  0  0  0  0  0  0  0
    3.0722   -1.3513    0.0000 H   0  0  0  0  0  0  0  0  0  0  0  0
    3.4708   -2.0415    0.0000 H   0  0  0  0  0  0  0  0  0  0  0  0
    5.4149   -0.8389    0.0000 H   0  0  0  0  0  0  0  0  0  0  0  0
    4.0119   -3.2689    0.0000 H   0  0  0  0  0  0  0  0  0  0  0  0
    6.8178   -1.6489    0.0000 H   0  0  0  0  0  0  0  0  0  0  0  0
    5.4149   -4.0789    0.0000 H   0  0  0  0  0  0  0  0  0  0  0  0
  1 19  1  0  0  0  0
  2 10  2  0  0  0  0
  3  8  1  0  0  0  0
  3 10  1  0  0  0  0
  3 13  1  0  0  0  0
  4  5  1  0  0  0  0
  4  6  1  0  0  0  0
  4  7  1  0  0  0  0
  4 20  1  0  0  0  0
  5  8  1  0  0  0  0
  5 21  1  0  0  0  0
  5 22  1  0  0  0  0
  6 11  1  0  0  0  0
  6 12  1  0  0  0  0
  6 23  1  0  0  0  0
  7  9  1  0  0  0  0
  7 24  1  0  0  0  0
  7 25  1  0  0  0  0
  8 26  1  0  0  0  0
  8 27  1  0  0  0  0
  9 10  1  0  0  0  0
  9 28  1  0  0  0  0
  9 29  1  0  0  0  0
 11 31  1  0  0  0  0
 11 34  1  0  0  0  0
 11 35  1  0  0  0  0
 12 30  1  0  0  0  0
 12 32  1  0  0  0  0
 12 33  1  0  0  0  0
 13 14  1  0  0  0  0
 13 36  1  0  0  0  0
 13 37  1  0  0  0  0
 14 15  2  0  0  0  0
 14 16  1  0  0  0  0
 15 17  1  0  0  0  0
 15 38  1  0  0  0  0
 16 18  2  0  0  0  0
 16 39  1  0  0  0  0
 17 19  2  0  0  0  0
 17 40  1  0  0  0  0
 18 19  1  0  0  0  0
 18 41  1  0  0  0  0
M  END
> <PUBCHEM_COMPOUND_CID>
64347277

> <PUBCHEM_COMPOUND_CANONICALIZED>
1

> <PUBCHEM_CACTVS_COMPLEXITY>
297

> <PUBCHEM_CACTVS_HBOND_ACCEPTOR>
1

> <PUBCHEM_CACTVS_HBOND_DONOR>
0

> <PUBCHEM_CACTVS_ROTATABLE_BOND>
3

> <PUBCHEM_CACTVS_SUBSKEYS>
AAADceB6IAAAEAAAAAAAAAAAAAAAAAAAAAAwAAAABYAAAAABAAAAHgBAAAABrQDBmAQyAIMAAACIAiFSEACCAAAgAAQIiAEIBKgIIDKAkRGEIAhghgCIihcYiAAOggAAAAAAAAAEAAAAAAAAAAAAAAAAAA==

> <PUBCHEM_IUPAC_OPENEYE_NAME>
1-[(4-bromophenyl)methyl]-5-isopropyl-azepan-2-one

> <PUBCHEM_IUPAC_CAS_NAME>
1-[(4-bromophenyl)methyl]-5-propan-2-yl-2-azepanone

> <PUBCHEM_IUPAC_NAME>
1-[(4-bromophenyl)methyl]-5-propan-2-ylazepan-2-one

> <PUBCHEM_IUPAC_SYSTEMATIC_NAME>
1-[(4-bromophenyl)methyl]-5-propan-2-yl-azepan-2-one

> <PUBCHEM_IUPAC_TRADITIONAL_NAME>
1-(4-bromobenzyl)-5-isopropyl-azepan-2-one

> <PUBCHEM_IUPAC_INCHI>
InChI=1S/C16H22BrNO/c1-12(2)14-5-8-16(19)18(10-9-14)11-13-3-6-15(17)7-4-13/h3-4,6-7,12,14H,5,8-11H2,1-2H3

> <PUBCHEM_IUPAC_INCHIKEY>
ILABIDFHIVOMPC-UHFFFAOYSA-N

> <PUBCHEM_XLOGP3>
3.9

> <PUBCHEM_EXACT_MASS>
323.088476

> <PUBCHEM_MOLECULAR_FORMULA>
C16H22BrNO

> <PUBCHEM_MOLECULAR_WEIGHT>
324.25598

> <PUBCHEM_OPENEYE_CAN_SMILES>
CC(C)C1CCC(=O)N(CC1)CC2=CC=C(C=C2)Br

> <PUBCHEM_OPENEYE_ISO_SMILES>
CC(C)C1CCC(=O)N(CC1)CC2=CC=C(C=C2)Br

> <PUBCHEM_CACTVS_TPSA>
20.3

> <PUBCHEM_MONOISOTOPIC_WEIGHT>
323.088476

> <PUBCHEM_TOTAL_CHARGE>
0

> <PUBCHEM_HEAVY_ATOM_COUNT>
19

> <PUBCHEM_ATOM_DEF_STEREO_COUNT>
0

> <PUBCHEM_ATOM_UDEF_STEREO_COUNT>
1

> <PUBCHEM_BOND_DEF_STEREO_COUNT>
0

> <PUBCHEM_BOND_UDEF_STEREO_COUNT>
0

> <PUBCHEM_ISOTOPIC_ATOM_COUNT>
0

> <PUBCHEM_COMPONENT_COUNT>
1

> <PUBCHEM_CACTVS_TAUTO_COUNT>
2

> <PUBCHEM_COORDINATE_TYPE>
1
5
255

> <PUBCHEM_BONDANNOTATIONS>
14  15  8
14  16  8
15  17  8
16  18  8
17  19  8
18  19  8
4  6  3

$$$$
64347644
  -OEChem-11301218252D

 35 36  0     1  0  0  0  0  0999 V2000
    7.1469   -3.0458    0.0000 Br  0  0  0  0  0  0  0  0  0  0  0  0
    2.0000   -0.2354    0.0000 O   0  0  0  0  0  0  0  0  0  0  0  0
    3.6828   -0.0458    0.0000 N   0  0  0  0  0  0  0  0  0  0  0  0
    4.1828    2.1448    0.0000 C   0  0  3  0  0  0  0  0  0  0  0  0
    4.8063    1.3630    0.0000 C   0  0  0  0  0  0  0  0  0  0  0  0
    3.1828    2.1448    0.0000 C   0  0  0  0  0  0  0  0  0  0  0  0
    4.5838    0.3881    0.0000 C   0  0  0  0  0  0  0  0  0  0  0  0
    2.5593    1.3630    0.0000 C   0  0  0  0  0  0  0  0  0  0  0  0
    2.7818    0.3881    0.0000 C   0  0  0  0  0  0  0  0  0  0  0  0
    4.6167    3.0458    0.0000 C   0  0  0  0  0  0  0  0  0  0  0  0
    3.6828   -1.0458    0.0000 C   0  0  0  0  0  0  0  0  0  0  0  0
    4.5488   -1.5458    0.0000 C   0  0  0  0  0  0  0  0  0  0  0  0
    5.4149   -1.0458    0.0000 C   0  0  0  0  0  0  0  0  0  0  0  0
    4.5488   -2.5458    0.0000 C   0  0  0  0  0  0  0  0  0  0  0  0
    6.2809   -1.5458    0.0000 C   0  0  0  0  0  0  0  0  0  0  0  0
    5.4149   -3.0458    0.0000 C   0  0  0  0  0  0  0  0  0  0  0  0
    6.2809   -2.5458    0.0000 C   0  0  0  0  0  0  0  0  0  0  0  0
    4.7989    2.2143    0.0000 H   0  0  0  0  0  0  0  0  0  0  0  0
    5.3649    1.0940    0.0000 H   0  0  0  0  0  0  0  0  0  0  0  0
    5.1928    1.8477    0.0000 H   0  0  0  0  0  0  0  0  0  0  0  0
    3.3208    2.7493    0.0000 H   0  0  0  0  0  0  0  0  0  0  0  0
    2.6242    2.4138    0.0000 H   0  0  0  0  0  0  0  0  0  0  0  0
    4.7217   -0.2164    0.0000 H   0  0  0  0  0  0  0  0  0  0  0  0
    5.2038    0.3881    0.0000 H   0  0  0  0  0  0  0  0  0  0  0  0
    2.1728    1.8477    0.0000 H   0  0  0  0  0  0  0  0  0  0  0  0
    2.0007    1.0940    0.0000 H   0  0  0  0  0  0  0  0  0  0  0  0
    5.1753    2.7768    0.0000 H   0  0  0  0  0  0  0  0  0  0  0  0
    4.8857    3.6044    0.0000 H   0  0  0  0  0  0  0  0  0  0  0  0
    4.0581    3.3148    0.0000 H   0  0  0  0  0  0  0  0  0  0  0  0
    3.0722   -0.9381    0.0000 H   0  0  0  0  0  0  0  0  0  0  0  0
    3.4708   -1.6284    0.0000 H   0  0  0  0  0  0  0  0  0  0  0  0
    5.4149   -0.4258    0.0000 H   0  0  0  0  0  0  0  0  0  0  0  0
    4.0119   -2.8558    0.0000 H   0  0  0  0  0  0  0  0  0  0  0  0
    6.8178   -1.2358    0.0000 H   0  0  0  0  0  0  0  0  0  0  0  0
    5.4149   -3.6658    0.0000 H   0  0  0  0  0  0  0  0  0  0  0  0
  1 17  1  0  0  0  0
  2  9  2  0  0  0  0
  3  7  1  0  0  0  0
  3  9  1  0  0  0  0
  3 11  1  0  0  0  0
  4  5  1  0  0  0  0
  4  6  1  0  0  0  0
  4 10  1  0  0  0  0
  4 18  1  0  0  0  0
  5  7  1  0  0  0  0
  5 19  1  0  0  0  0
  5 20  1  0  0  0  0
  6  8  1  0  0  0  0
  6 21  1  0  0  0  0
  6 22  1  0  0  0  0
  7 23  1  0  0  0  0
  7 24  1  0  0  0  0
  8  9  1  0  0  0  0
  8 25  1  0  0  0  0
  8 26  1  0  0  0  0
 10 27  1  0  0  0  0
 10 28  1  0  0  0  0
 10 29  1  0  0  0  0
 11 12  1  0  0  0  0
 11 30  1  0  0  0  0
 11 31  1  0  0  0  0
 12 13  2  0  0  0  0
 12 14  1  0  0  0  0
 13 15  1  0  0  0  0
 13 32  1  0  0  0  0
 14 16  2  0  0  0  0
 14 33  1  0  0  0  0
 15 17  2  0  0  0  0
 15 34  1  0  0  0  0
 16 17  1  0  0  0  0
 16 35  1  0  0  0  0
M  END
> <PUBCHEM_COMPOUND_CID>
64347644

> <PUBCHEM_COMPOUND_CANONICALIZED>
1

> <PUBCHEM_CACTVS_COMPLEXITY>
261

> <PUBCHEM_CACTVS_HBOND_ACCEPTOR>
1

> <PUBCHEM_CACTVS_HBOND_DONOR>
0

> <PUBCHEM_CACTVS_ROTATABLE_BOND>
2

> <PUBCHEM_CACTVS_SUBSKEYS>
AAADceByIAAAEAAAAAAAAAAAAAAAAAAAAAAwAAAABYAAAAABAAAAHgBAAAABrQDBmAQyAIMAAACIAiFSEACCAAAgAAQIiAEIBKgIIDKAkRGEIAhghgCIihcYiAAOAgAAAAAAAAAEAAAAAAAAAAAAAAAAAA==

> <PUBCHEM_IUPAC_OPENEYE_NAME>
1-[(4-bromophenyl)methyl]-5-methyl-azepan-2-one

> <PUBCHEM_IUPAC_CAS_NAME>
1-[(4-bromophenyl)methyl]-5-methyl-2-azepanone

> <PUBCHEM_IUPAC_NAME>
1-[(4-bromophenyl)methyl]-5-methylazepan-2-one

> <PUBCHEM_IUPAC_SYSTEMATIC_NAME>
1-[(4-bromophenyl)methyl]-5-methyl-azepan-2-one

> <PUBCHEM_IUPAC_TRADITIONAL_NAME>
1-(4-bromobenzyl)-5-methyl-azepan-2-one

> <PUBCHEM_IUPAC_INCHI>
InChI=1S/C14H18BrNO/c1-11-2-7-14(17)16(9-8-11)10-12-3-5-13(15)6-4-12/h3-6,11H,2,7-10H2,1H3

> <PUBCHEM_IUPAC_INCHIKEY>
WYYXSZYGOZBMFG-UHFFFAOYSA-N

> <PUBCHEM_XLOGP3>
3.1

> <PUBCHEM_EXACT_MASS>
295.057176

> <PUBCHEM_MOLECULAR_FORMULA>
C14H18BrNO

> <PUBCHEM_MOLECULAR_WEIGHT>
296.20282

> <PUBCHEM_OPENEYE_CAN_SMILES>
CC1CCC(=O)N(CC1)CC2=CC=C(C=C2)Br

> <PUBCHEM_OPENEYE_ISO_SMILES>
CC1CCC(=O)N(CC1)CC2=CC=C(C=C2)Br

> <PUBCHEM_CACTVS_TPSA>
20.3

> <PUBCHEM_MONOISOTOPIC_WEIGHT>
295.057176

> <PUBCHEM_TOTAL_CHARGE>
0

> <PUBCHEM_HEAVY_ATOM_COUNT>
17

> <PUBCHEM_ATOM_DEF_STEREO_COUNT>
0

> <PUBCHEM_ATOM_UDEF_STEREO_COUNT>
1

> <PUBCHEM_BOND_DEF_STEREO_COUNT>
0

> <PUBCHEM_BOND_UDEF_STEREO_COUNT>
0

> <PUBCHEM_ISOTOPIC_ATOM_COUNT>
0

> <PUBCHEM_COMPONENT_COUNT>
1

> <PUBCHEM_CACTVS_TAUTO_COUNT>
2

> <PUBCHEM_COORDINATE_TYPE>
1
5
255

> <PUBCHEM_BONDANNOTATIONS>
12  13  8
12  14  8
13  15  8
14  16  8
15  17  8
16  17  8
4  10  3

$$$$
