27733767
  -OEChem-11301217402D

 43 44  0     0  0  0  0  0  0999 V2000
    2.0000   -4.1160    0.0000 Cl  0  0  0  0  0  0  0  0  0  0  0  0
    3.7320   -5.1160    0.0000 Cl  0  0  0  0  0  0  0  0  0  0  0  0
    5.4641   -1.1160    0.0000 O   0  0  0  0  0  0  0  0  0  0  0  0
    6.3301    3.3840    0.0000 N   0  3  0  0  0  0  0  0  0  0  0  0
    4.5981    0.3840    0.0000 N   0  0  0  0  0  0  0  0  0  0  0  0
    3.7320   -1.1160    0.0000 N   0  0  0  0  0  0  0  0  0  0  0  0
    6.8301    4.2500    0.0000 C   0  0  0  0  0  0  0  0  0  0  0  0
    5.3301    3.3840    0.0000 C   0  0  0  0  0  0  0  0  0  0  0  0
    6.3301    5.1160    0.0000 C   0  0  0  0  0  0  0  0  0  0  0  0
    4.8301    4.2500    0.0000 C   0  0  0  0  0  0  0  0  0  0  0  0
    6.3301    2.3840    0.0000 C   0  0  0  0  0  0  0  0  0  0  0  0
    5.3301    5.1160    0.0000 C   0  0  0  0  0  0  0  0  0  0  0  0
    5.4641    1.8840    0.0000 C   0  0  0  0  0  0  0  0  0  0  0  0
    5.4641    0.8840    0.0000 C   0  0  0  0  0  0  0  0  0  0  0  0
    4.5981   -0.6160    0.0000 C   0  0  0  0  0  0  0  0  0  0  0  0
    3.7320   -2.1160    0.0000 C   0  0  0  0  0  0  0  0  0  0  0  0
    2.8660   -2.6160    0.0000 C   0  0  0  0  0  0  0  0  0  0  0  0
    4.5981   -2.6160    0.0000 C   0  0  0  0  0  0  0  0  0  0  0  0
    2.8660   -3.6160    0.0000 C   0  0  0  0  0  0  0  0  0  0  0  0
    4.5981   -3.6160    0.0000 C   0  0  0  0  0  0  0  0  0  0  0  0
    3.7320   -4.1160    0.0000 C   0  0  0  0  0  0  0  0  0  0  0  0
    7.1962    2.8840    0.0000 H   0  0  0  0  0  0  0  0  0  0  0  0
    4.7475    3.1719    0.0000 H   0  0  0  0  0  0  0  0  0  0  0  0
    5.4378    2.7734    0.0000 H   0  0  0  0  0  0  0  0  0  0  0  0
    7.3051    3.8515    0.0000 H   0  0  0  0  0  0  0  0  0  0  0  0
    7.3051    4.6485    0.0000 H   0  0  0  0  0  0  0  0  0  0  0  0
    4.3552    4.6485    0.0000 H   0  0  0  0  0  0  0  0  0  0  0  0
    4.3552    3.8515    0.0000 H   0  0  0  0  0  0  0  0  0  0  0  0
    6.9127    5.3281    0.0000 H   0  0  0  0  0  0  0  0  0  0  0  0
    6.2225    5.7266    0.0000 H   0  0  0  0  0  0  0  0  0  0  0  0
    6.5422    1.8014    0.0000 H   0  0  0  0  0  0  0  0  0  0  0  0
    6.9407    2.4916    0.0000 H   0  0  0  0  0  0  0  0  0  0  0  0
    5.4378    5.7266    0.0000 H   0  0  0  0  0  0  0  0  0  0  0  0
    4.7475    5.3281    0.0000 H   0  0  0  0  0  0  0  0  0  0  0  0
    5.2520    2.4666    0.0000 H   0  0  0  0  0  0  0  0  0  0  0  0
    4.8535    1.7763    0.0000 H   0  0  0  0  0  0  0  0  0  0  0  0
    5.6762    0.3014    0.0000 H   0  0  0  0  0  0  0  0  0  0  0  0
    6.0747    0.9916    0.0000 H   0  0  0  0  0  0  0  0  0  0  0  0
    4.0611    0.6940    0.0000 H   0  0  0  0  0  0  0  0  0  0  0  0
    3.1951   -0.8060    0.0000 H   0  0  0  0  0  0  0  0  0  0  0  0
    2.3291   -2.3060    0.0000 H   0  0  0  0  0  0  0  0  0  0  0  0
    5.1350   -2.3060    0.0000 H   0  0  0  0  0  0  0  0  0  0  0  0
    5.1350   -3.9260    0.0000 H   0  0  0  0  0  0  0  0  0  0  0  0
  1 19  1  0  0  0  0
  2 21  1  0  0  0  0
  3 15  2  0  0  0  0
  4  7  1  0  0  0  0
  4  8  1  0  0  0  0
  4 11  1  0  0  0  0
  4 22  1  0  0  0  0
  5 14  1  0  0  0  0
  5 15  1  0  0  0  0
  5 39  1  0  0  0  0
  6 15  1  0  0  0  0
  6 16  1  0  0  0  0
  6 40  1  0  0  0  0
  7  9  1  0  0  0  0
  7 25  1  0  0  0  0
  7 26  1  0  0  0  0
  8 10  1  0  0  0  0
  8 23  1  0  0  0  0
  8 24  1  0  0  0  0
  9 12  1  0  0  0  0
  9 29  1  0  0  0  0
  9 30  1  0  0  0  0
 10 12  1  0  0  0  0
 10 27  1  0  0  0  0
 10 28  1  0  0  0  0
 11 13  1  0  0  0  0
 11 31  1  0  0  0  0
 11 32  1  0  0  0  0
 12 33  1  0  0  0  0
 12 34  1  0  0  0  0
 13 14  1  0  0  0  0
 13 35  1  0  0  0  0
 13 36  1  0  0  0  0
 14 37  1  0  0  0  0
 14 38  1  0  0  0  0
 16 17  2  0  0  0  0
 16 18  1  0  0  0  0
 17 19  1  0  0  0  0
 17 41  1  0  0  0  0
 18 20  2  0  0  0  0
 18 42  1  0  0  0  0
 19 21  2  0  0  0  0
 20 21  1  0  0  0  0
 20 43  1  0  0  0  0
M  CHG  1   4   1
M  END
> <PUBCHEM_COMPOUND_CID>
27733767

> <PUBCHEM_COMPOUND_CANONICALIZED>
1

> <PUBCHEM_CACTVS_COMPLEXITY>
324

> <PUBCHEM_CACTVS_HBOND_ACCEPTOR>
1

> <PUBCHEM_CACTVS_HBOND_DONOR>
3

> <PUBCHEM_CACTVS_ROTATABLE_BOND>
5

> <PUBCHEM_CACTVS_SUBSKEYS>
AAADceBzIAAGAAAAAAAAAAAAAAAAAAAAAAA8QAAAAAAAAAABAAAAHgIQAAAACArBECQxwIPAAACIACRCUACCAAAhBwAIisAIZoiIICLB05GEIAholgLIyCcQAAAAAABAAAIAAAQAAIAABAAACAAAAAAAAA==

> <PUBCHEM_IUPAC_OPENEYE_NAME>
1-(3,4-dichlorophenyl)-3-(3-piperidin-1-ium-1-ylpropyl)urea

> <PUBCHEM_IUPAC_CAS_NAME>
1-(3,4-dichlorophenyl)-3-[3-(1-piperidin-1-iumyl)propyl]urea

> <PUBCHEM_IUPAC_NAME>
1-(3,4-dichlorophenyl)-3-(3-piperidin-1-ium-1-ylpropyl)urea

> <PUBCHEM_IUPAC_SYSTEMATIC_NAME>
1-(3,4-dichlorophenyl)-3-(3-piperidin-1-ium-1-ylpropyl)urea

> <PUBCHEM_IUPAC_TRADITIONAL_NAME>
1-(3,4-dichlorophenyl)-3-(3-piperidin-1-ium-1-ylpropyl)urea

> <PUBCHEM_IUPAC_INCHI>
InChI=1S/C15H21Cl2N3O/c16-13-6-5-12(11-14(13)17)19-15(21)18-7-4-10-20-8-2-1-3-9-20/h5-6,11H,1-4,7-10H2,(H2,18,19,21)/p+1

> <PUBCHEM_IUPAC_INCHIKEY>
MLJRTXFCSANFSL-UHFFFAOYSA-O

> <PUBCHEM_XLOGP3>
4.4

> <PUBCHEM_EXACT_MASS>
330.113993

> <PUBCHEM_MOLECULAR_FORMULA>
C15H22Cl2N3O+

> <PUBCHEM_MOLECULAR_WEIGHT>
331.26068

> <PUBCHEM_OPENEYE_CAN_SMILES>
C1CC[NH+](CC1)CCCNC(=O)NC2=CC(=C(C=C2)Cl)Cl

> <PUBCHEM_OPENEYE_ISO_SMILES>
C1CC[NH+](CC1)CCCNC(=O)NC2=CC(=C(C=C2)Cl)Cl

> <PUBCHEM_CACTVS_TPSA>
45.6

> <PUBCHEM_MONOISOTOPIC_WEIGHT>
330.113993

> <PUBCHEM_TOTAL_CHARGE>
1

> <PUBCHEM_HEAVY_ATOM_COUNT>
21

> <PUBCHEM_ATOM_DEF_STEREO_COUNT>
0

> <PUBCHEM_ATOM_UDEF_STEREO_COUNT>
0

> <PUBCHEM_BOND_DEF_STEREO_COUNT>
0

> <PUBCHEM_BOND_UDEF_STEREO_COUNT>
0

> <PUBCHEM_ISOTOPIC_ATOM_COUNT>
0

> <PUBCHEM_COMPONENT_COUNT>
1

> <PUBCHEM_CACTVS_TAUTO_COUNT>
3

> <PUBCHEM_COORDINATE_TYPE>
1
5
255

> <PUBCHEM_BONDANNOTATIONS>
16  17  8
16  18  8
17  19  8
18  20  8
19  21  8
20  21  8

$$$$
27734960
  -OEChem-11301217402D

 33 34  0     0  0  0  0  0  0999 V2000
    3.7320   -0.7673    0.0000 N   0  3  0  0  0  0  0  0  0  0  0  0
    4.5981   -0.2673    0.0000 C   0  0  0  0  0  0  0  0  0  0  0  0
    2.8660   -1.2673    0.0000 C   0  0  0  0  0  0  0  0  0  0  0  0
    4.5981    0.7327    0.0000 C   0  0  0  0  0  0  0  0  0  0  0  0
    5.4641    1.2327    0.0000 C   0  0  0  0  0  0  0  0  0  0  0  0
    2.8660   -2.2673    0.0000 C   0  0  0  0  0  0  0  0  0  0  0  0
    5.4641    2.2327    0.0000 C   0  0  0  0  0  0  0  0  0  0  0  0
    3.7320    1.2327    0.0000 C   0  0  0  0  0  0  0  0  0  0  0  0
    6.3580    0.6980    0.0000 C   0  0  0  0  0  0  0  0  0  0  0  0
    4.5981    2.7327    0.0000 C   0  0  0  0  0  0  0  0  0  0  0  0
    3.7320    2.2327    0.0000 C   0  0  0  0  0  0  0  0  0  0  0  0
    2.0000   -2.7673    0.0000 C   0  0  0  0  0  0  0  0  0  0  0  0
    6.3580    2.7673    0.0000 C   0  0  0  0  0  0  0  0  0  0  0  0
    7.2641    1.2119    0.0000 C   0  0  0  0  0  0  0  0  0  0  0  0
    7.2641    2.2535    0.0000 C   0  0  0  0  0  0  0  0  0  0  0  0
    4.0420   -1.3043    0.0000 H   0  0  0  0  0  0  0  0  0  0  0  0
    3.4220   -0.2304    0.0000 H   0  0  0  0  0  0  0  0  0  0  0  0
    4.8101   -0.8499    0.0000 H   0  0  0  0  0  0  0  0  0  0  0  0
    5.2087   -0.1597    0.0000 H   0  0  0  0  0  0  0  0  0  0  0  0
    2.6540   -0.6847    0.0000 H   0  0  0  0  0  0  0  0  0  0  0  0
    2.2554   -1.3750    0.0000 H   0  0  0  0  0  0  0  0  0  0  0  0
    3.0781   -2.8499    0.0000 H   0  0  0  0  0  0  0  0  0  0  0  0
    3.4766   -2.1597    0.0000 H   0  0  0  0  0  0  0  0  0  0  0  0
    3.1951    0.9227    0.0000 H   0  0  0  0  0  0  0  0  0  0  0  0
    6.3509    0.0780    0.0000 H   0  0  0  0  0  0  0  0  0  0  0  0
    4.5981    3.3527    0.0000 H   0  0  0  0  0  0  0  0  0  0  0  0
    3.1951    2.5427    0.0000 H   0  0  0  0  0  0  0  0  0  0  0  0
    1.6900   -2.2304    0.0000 H   0  0  0  0  0  0  0  0  0  0  0  0
    1.4631   -3.0773    0.0000 H   0  0  0  0  0  0  0  0  0  0  0  0
    2.3100   -3.3043    0.0000 H   0  0  0  0  0  0  0  0  0  0  0  0
    6.3509    3.3873    0.0000 H   0  0  0  0  0  0  0  0  0  0  0  0
    7.7998    0.8998    0.0000 H   0  0  0  0  0  0  0  0  0  0  0  0
    7.7998    2.5656    0.0000 H   0  0  0  0  0  0  0  0  0  0  0  0
  1  2  1  0  0  0  0
  1  3  1  0  0  0  0
  1 16  1  0  0  0  0
  1 17  1  0  0  0  0
  2  4  1  0  0  0  0
  2 18  1  0  0  0  0
  2 19  1  0  0  0  0
  3  6  1  0  0  0  0
  3 20  1  0  0  0  0
  3 21  1  0  0  0  0
  4  5  1  0  0  0  0
  4  8  2  0  0  0  0
  5  7  1  0  0  0  0
  5  9  2  0  0  0  0
  6 12  1  0  0  0  0
  6 22  1  0  0  0  0
  6 23  1  0  0  0  0
  7 10  1  0  0  0  0
  7 13  2  0  0  0  0
  8 11  1  0  0  0  0
  8 24  1  0  0  0  0
  9 14  1  0  0  0  0
  9 25  1  0  0  0  0
 10 11  2  0  0  0  0
 10 26  1  0  0  0  0
 11 27  1  0  0  0  0
 12 28  1  0  0  0  0
 12 29  1  0  0  0  0
 12 30  1  0  0  0  0
 13 15  1  0  0  0  0
 13 31  1  0  0  0  0
 14 15  2  0  0  0  0
 14 32  1  0  0  0  0
 15 33  1  0  0  0  0
M  CHG  1   1   1
M  END
> <PUBCHEM_COMPOUND_CID>
27734960

> <PUBCHEM_COMPOUND_CANONICALIZED>
1

> <PUBCHEM_CACTVS_COMPLEXITY>
178

> <PUBCHEM_CACTVS_HBOND_ACCEPTOR>
0

> <PUBCHEM_CACTVS_HBOND_DONOR>
1

> <PUBCHEM_CACTVS_ROTATABLE_BOND>
4

> <PUBCHEM_CACTVS_SUBSKEYS>
AAADceByAAAAAAAAAAAAAAAAAAAAAAAAAAAwYAAAAAAAAADBUAAAHAAQAAAADADBGAQyAMLAAACAAiBCAACCAAAgAAAIiIAIBIgIICKAkRGEIAhgkACIiAcQgMAOgAACAAAQAAAAAAQAACAAAAAAAAAAAA==

> <PUBCHEM_IUPAC_OPENEYE_NAME>
1-naphthylmethyl(propyl)ammonium

> <PUBCHEM_IUPAC_CAS_NAME>
1-naphthalenylmethyl(propyl)ammonium

> <PUBCHEM_IUPAC_NAME>
naphthalen-1-ylmethyl(propyl)azanium

> <PUBCHEM_IUPAC_SYSTEMATIC_NAME>
naphthalen-1-ylmethyl(propyl)azanium

> <PUBCHEM_IUPAC_TRADITIONAL_NAME>
1-naphthylmethyl(propyl)ammonium

> <PUBCHEM_IUPAC_INCHI>
InChI=1S/C14H17N/c1-2-10-15-11-13-8-5-7-12-6-3-4-9-14(12)13/h3-9,15H,2,10-11H2,1H3/p+1

> <PUBCHEM_IUPAC_INCHIKEY>
OAWDITXABOUZMW-UHFFFAOYSA-O

> <PUBCHEM_XLOGP3>
3.5

> <PUBCHEM_EXACT_MASS>
200.143925

> <PUBCHEM_MOLECULAR_FORMULA>
C14H18N+

> <PUBCHEM_MOLECULAR_WEIGHT>
200.29942

> <PUBCHEM_OPENEYE_CAN_SMILES>
CCC[NH2+]CC1=CC=CC2=CC=CC=C21

> <PUBCHEM_OPENEYE_ISO_SMILES>
CCC[NH2+]CC1=CC=CC2=CC=CC=C21

> <PUBCHEM_CACTVS_TPSA>
16.6

> <PUBCHEM_MONOISOTOPIC_WEIGHT>
200.143925

> <PUBCHEM_TOTAL_CHARGE>
1

> <PUBCHEM_HEAVY_ATOM_COUNT>
15

> <PUBCHEM_ATOM_DEF_STEREO_COUNT>
0

> <PUBCHEM_ATOM_UDEF_STEREO_COUNT>
0

> <PUBCHEM_BOND_DEF_STEREO_COUNT>
0

> <PUBCHEM_BOND_UDEF_STEREO_COUNT>
0

> <PUBCHEM_ISOTOPIC_ATOM_COUNT>
0

> <PUBCHEM_COMPONENT_COUNT>
1

> <PUBCHEM_CACTVS_TAUTO_COUNT>
1

> <PUBCHEM_COORDINATE_TYPE>
1
5
255

> <PUBCHEM_BONDANNOTATIONS>
10  11  8
13  15  8
14  15  8
4  5  8
4  8  8
5  7  8
5  9  8
7  10  8
7  13  8
8  11  8
9  14  8

$$$$
