52850886
  -OEChem-11301218032D

 41 42  0     0  0  0  0  0  0999 V2000
    2.0000    1.0000    0.0000 O   0  0  0  0  0  0  0  0  0  0  0  0
    3.7320    1.0000    0.0000 N   0  0  0  0  0  0  0  0  0  0  0  0
    2.8660   -3.5000    0.0000 C   0  0  0  0  0  0  0  0  0  0  0  0
    2.8660   -2.5000    0.0000 C   0  0  0  0  0  0  0  0  0  0  0  0
    2.0000   -4.0000    0.0000 C   0  0  0  0  0  0  0  0  0  0  0  0
    2.8660   -0.5000    0.0000 C   0  0  0  0  0  0  0  0  0  0  0  0
    3.7320   -2.0000    0.0000 C   0  0  0  0  0  0  0  0  0  0  0  0
    2.0000   -2.0000    0.0000 C   0  0  0  0  0  0  0  0  0  0  0  0
    3.7320    2.0000    0.0000 C   0  0  0  0  0  0  0  0  0  0  0  0
    2.8660    0.5000    0.0000 C   0  0  0  0  0  0  0  0  0  0  0  0
    3.7320   -1.0000    0.0000 C   0  0  0  0  0  0  0  0  0  0  0  0
    2.0000   -1.0000    0.0000 C   0  0  0  0  0  0  0  0  0  0  0  0
    2.0000   -5.0000    0.0000 C   0  0  0  0  0  0  0  0  0  0  0  0
    2.8660    2.5000    0.0000 C   0  0  0  0  0  0  0  0  0  0  0  0
    4.5981    2.5000    0.0000 C   0  0  0  0  0  0  0  0  0  0  0  0
    4.5981    0.5000    0.0000 C   0  0  0  0  0  0  0  0  0  0  0  0
    3.7320    4.0000    0.0000 C   0  0  0  0  0  0  0  0  0  0  0  0
    2.8660    3.5000    0.0000 C   0  0  0  0  0  0  0  0  0  0  0  0
    4.5981    3.5000    0.0000 C   0  0  0  0  0  0  0  0  0  0  0  0
    3.7320    5.0000    0.0000 C   0  0  0  0  0  0  0  0  0  0  0  0
    3.0781   -4.0826    0.0000 H   0  0  0  0  0  0  0  0  0  0  0  0
    3.4766   -3.3923    0.0000 H   0  0  0  0  0  0  0  0  0  0  0  0
    1.7880   -3.4174    0.0000 H   0  0  0  0  0  0  0  0  0  0  0  0
    1.3894   -4.1077    0.0000 H   0  0  0  0  0  0  0  0  0  0  0  0
    4.2690   -2.3100    0.0000 H   0  0  0  0  0  0  0  0  0  0  0  0
    1.4631   -2.3100    0.0000 H   0  0  0  0  0  0  0  0  0  0  0  0
    4.2690   -0.6900    0.0000 H   0  0  0  0  0  0  0  0  0  0  0  0
    1.4631   -0.6900    0.0000 H   0  0  0  0  0  0  0  0  0  0  0  0
    1.3800   -5.0000    0.0000 H   0  0  0  0  0  0  0  0  0  0  0  0
    2.0000   -5.6200    0.0000 H   0  0  0  0  0  0  0  0  0  0  0  0
    2.6200   -5.0000    0.0000 H   0  0  0  0  0  0  0  0  0  0  0  0
    2.3291    2.1900    0.0000 H   0  0  0  0  0  0  0  0  0  0  0  0
    5.1350    2.1900    0.0000 H   0  0  0  0  0  0  0  0  0  0  0  0
    4.2881   -0.0369    0.0000 H   0  0  0  0  0  0  0  0  0  0  0  0
    5.1350    0.1900    0.0000 H   0  0  0  0  0  0  0  0  0  0  0  0
    4.9081    1.0369    0.0000 H   0  0  0  0  0  0  0  0  0  0  0  0
    2.3291    3.8100    0.0000 H   0  0  0  0  0  0  0  0  0  0  0  0
    5.1350    3.8100    0.0000 H   0  0  0  0  0  0  0  0  0  0  0  0
    4.3520    5.0000    0.0000 H   0  0  0  0  0  0  0  0  0  0  0  0
    3.7320    5.6200    0.0000 H   0  0  0  0  0  0  0  0  0  0  0  0
    3.1120    5.0000    0.0000 H   0  0  0  0  0  0  0  0  0  0  0  0
  1 10  2  0  0  0  0
  2  9  1  0  0  0  0
  2 10  1  0  0  0  0
  2 16  1  0  0  0  0
  3  4  1  0  0  0  0
  3  5  1  0  0  0  0
  3 21  1  0  0  0  0
  3 22  1  0  0  0  0
  4  7  2  0  0  0  0
  4  8  1  0  0  0  0
  5 13  1  0  0  0  0
  5 23  1  0  0  0  0
  5 24  1  0  0  0  0
  6 10  1  0  0  0  0
  6 11  2  0  0  0  0
  6 12  1  0  0  0  0
  7 11  1  0  0  0  0
  7 25  1  0  0  0  0
  8 12  2  0  0  0  0
  8 26  1  0  0  0  0
  9 14  2  0  0  0  0
  9 15  1  0  0  0  0
 11 27  1  0  0  0  0
 12 28  1  0  0  0  0
 13 29  1  0  0  0  0
 13 30  1  0  0  0  0
 13 31  1  0  0  0  0
 14 18  1  0  0  0  0
 14 32  1  0  0  0  0
 15 19  2  0  0  0  0
 15 33  1  0  0  0  0
 16 34  1  0  0  0  0
 16 35  1  0  0  0  0
 16 36  1  0  0  0  0
 17 18  2  0  0  0  0
 17 19  1  0  0  0  0
 17 20  1  0  0  0  0
 18 37  1  0  0  0  0
 19 38  1  0  0  0  0
 20 39  1  0  0  0  0
 20 40  1  0  0  0  0
 20 41  1  0  0  0  0
M  END
> <PUBCHEM_COMPOUND_CID>
52850886

> <PUBCHEM_COMPOUND_CANONICALIZED>
1

> <PUBCHEM_CACTVS_COMPLEXITY>
299

> <PUBCHEM_CACTVS_HBOND_ACCEPTOR>
1

> <PUBCHEM_CACTVS_HBOND_DONOR>
0

> <PUBCHEM_CACTVS_ROTATABLE_BOND>
4

> <PUBCHEM_CACTVS_SUBSKEYS>
AAADceB6IAAAAAAAAAAAAAAAAAAAAAAAAAAwYAAAAAAAAAABQAAAHgAAAAAADAiBmAQywIMAAACIAiVSUACCAAAlAgAIiAEIZMgIIDLAlZGEIQhghgDIyYcYiMCOSAAAAAAAAACQAAAAAAAAAAAAAAAAAA==

> <PUBCHEM_IUPAC_OPENEYE_NAME>
N-methyl-4-propyl-N-(p-tolyl)benzamide

> <PUBCHEM_IUPAC_CAS_NAME>
N-methyl-N-(4-methylphenyl)-4-propylbenzamide

> <PUBCHEM_IUPAC_NAME>
N-methyl-N-(4-methylphenyl)-4-propylbenzamide

> <PUBCHEM_IUPAC_SYSTEMATIC_NAME>
N-methyl-N-(4-methylphenyl)-4-propyl-benzamide

> <PUBCHEM_IUPAC_TRADITIONAL_NAME>
N-methyl-4-propyl-N-(p-tolyl)benzamide

> <PUBCHEM_IUPAC_INCHI>
InChI=1S/C18H21NO/c1-4-5-15-8-10-16(11-9-15)18(20)19(3)17-12-6-14(2)7-13-17/h6-13H,4-5H2,1-3H3

> <PUBCHEM_IUPAC_INCHIKEY>
FWMIDBCKJOMESV-UHFFFAOYSA-N

> <PUBCHEM_XLOGP3>
4.1

> <PUBCHEM_EXACT_MASS>
267.162314

> <PUBCHEM_MOLECULAR_FORMULA>
C18H21NO

> <PUBCHEM_MOLECULAR_WEIGHT>
267.36544

> <PUBCHEM_OPENEYE_CAN_SMILES>
CCCC1=CC=C(C=C1)C(=O)N(C)C2=CC=C(C=C2)C

> <PUBCHEM_OPENEYE_ISO_SMILES>
CCCC1=CC=C(C=C1)C(=O)N(C)C2=CC=C(C=C2)C

> <PUBCHEM_CACTVS_TPSA>
20.3

> <PUBCHEM_MONOISOTOPIC_WEIGHT>
267.162314

> <PUBCHEM_TOTAL_CHARGE>
0

> <PUBCHEM_HEAVY_ATOM_COUNT>
20

> <PUBCHEM_ATOM_DEF_STEREO_COUNT>
0

> <PUBCHEM_ATOM_UDEF_STEREO_COUNT>
0

> <PUBCHEM_BOND_DEF_STEREO_COUNT>
0

> <PUBCHEM_BOND_UDEF_STEREO_COUNT>
0

> <PUBCHEM_ISOTOPIC_ATOM_COUNT>
0

> <PUBCHEM_COMPONENT_COUNT>
1

> <PUBCHEM_CACTVS_TAUTO_COUNT>
3

> <PUBCHEM_COORDINATE_TYPE>
1
5
255

> <PUBCHEM_BONDANNOTATIONS>
14  18  8
15  19  8
17  18  8
17  19  8
4  7  8
4  8  8
6  11  8
6  12  8
7  11  8
8  12  8
9  14  8
9  15  8

$$$$
52850957
  -OEChem-11301218032D

 50 51  0     0  0  0  0  0  0999 V2000
    2.8660    1.2500    0.0000 O   0  0  0  0  0  0  0  0  0  0  0  0
    2.8660   -3.7500    0.0000 N   0  3  0  0  0  0  0  0  0  0  0  0
    4.5981    1.2500    0.0000 N   0  0  0  0  0  0  0  0  0  0  0  0
    3.7320   -3.2500    0.0000 C   0  0  0  0  0  0  0  0  0  0  0  0
    2.0000   -4.2500    0.0000 C   0  0  0  0  0  0  0  0  0  0  0  0
    3.3660   -4.6160    0.0000 C   0  0  0  0  0  0  0  0  0  0  0  0
    3.7320   -2.2500    0.0000 C   0  0  0  0  0  0  0  0  0  0  0  0
    4.3660   -4.6160    0.0000 C   0  0  0  0  0  0  0  0  0  0  0  0
    2.0000   -5.2500    0.0000 C   0  0  0  0  0  0  0  0  0  0  0  0
    2.8660   -1.7500    0.0000 C   0  0  0  0  0  0  0  0  0  0  0  0
    4.5981   -1.7500    0.0000 C   0  0  0  0  0  0  0  0  0  0  0  0
    3.7320   -0.2500    0.0000 C   0  0  0  0  0  0  0  0  0  0  0  0
    2.8660   -0.7500    0.0000 C   0  0  0  0  0  0  0  0  0  0  0  0
    4.5981   -0.7500    0.0000 C   0  0  0  0  0  0  0  0  0  0  0  0
    3.7320    0.7500    0.0000 C   0  0  0  0  0  0  0  0  0  0  0  0
    4.5981    2.2500    0.0000 C   0  0  0  0  0  0  0  0  0  0  0  0
    5.4641    0.7500    0.0000 C   0  0  0  0  0  0  0  0  0  0  0  0
    3.7320    2.7500    0.0000 C   0  0  0  0  0  0  0  0  0  0  0  0
    5.4641    2.7500    0.0000 C   0  0  0  0  0  0  0  0  0  0  0  0
    4.5981    4.2500    0.0000 C   0  0  0  0  0  0  0  0  0  0  0  0
    3.7320    3.7500    0.0000 C   0  0  0  0  0  0  0  0  0  0  0  0
    5.4641    3.7500    0.0000 C   0  0  0  0  0  0  0  0  0  0  0  0
    4.5981    5.2500    0.0000 C   0  0  0  0  0  0  0  0  0  0  0  0
    2.5560   -3.2131    0.0000 H   0  0  0  0  0  0  0  0  0  0  0  0
    3.9441   -3.8326    0.0000 H   0  0  0  0  0  0  0  0  0  0  0  0
    4.3426   -3.1423    0.0000 H   0  0  0  0  0  0  0  0  0  0  0  0
    1.7880   -3.6674    0.0000 H   0  0  0  0  0  0  0  0  0  0  0  0
    1.3894   -4.3577    0.0000 H   0  0  0  0  0  0  0  0  0  0  0  0
    2.7834   -4.8281    0.0000 H   0  0  0  0  0  0  0  0  0  0  0  0
    3.4737   -5.2266    0.0000 H   0  0  0  0  0  0  0  0  0  0  0  0
    4.3660   -5.2360    0.0000 H   0  0  0  0  0  0  0  0  0  0  0  0
    1.3800   -5.2500    0.0000 H   0  0  0  0  0  0  0  0  0  0  0  0
    2.0000   -5.8700    0.0000 H   0  0  0  0  0  0  0  0  0  0  0  0
    2.6200   -5.2500    0.0000 H   0  0  0  0  0  0  0  0  0  0  0  0
    4.9860   -4.6160    0.0000 H   0  0  0  0  0  0  0  0  0  0  0  0
    4.3660   -3.9960    0.0000 H   0  0  0  0  0  0  0  0  0  0  0  0
    2.3291   -2.0600    0.0000 H   0  0  0  0  0  0  0  0  0  0  0  0
    5.1350   -2.0600    0.0000 H   0  0  0  0  0  0  0  0  0  0  0  0
    2.3291   -0.4400    0.0000 H   0  0  0  0  0  0  0  0  0  0  0  0
    5.1350   -0.4400    0.0000 H   0  0  0  0  0  0  0  0  0  0  0  0
    5.1541    0.2131    0.0000 H   0  0  0  0  0  0  0  0  0  0  0  0
    6.0010    0.4400    0.0000 H   0  0  0  0  0  0  0  0  0  0  0  0
    5.7741    1.2869    0.0000 H   0  0  0  0  0  0  0  0  0  0  0  0
    3.1951    2.4400    0.0000 H   0  0  0  0  0  0  0  0  0  0  0  0
    6.0010    2.4400    0.0000 H   0  0  0  0  0  0  0  0  0  0  0  0
    3.1951    4.0600    0.0000 H   0  0  0  0  0  0  0  0  0  0  0  0
    6.0010    4.0600    0.0000 H   0  0  0  0  0  0  0  0  0  0  0  0
    5.2181    5.2500    0.0000 H   0  0  0  0  0  0  0  0  0  0  0  0
    4.5981    5.8700    0.0000 H   0  0  0  0  0  0  0  0  0  0  0  0
    3.9781    5.2500    0.0000 H   0  0  0  0  0  0  0  0  0  0  0  0
  1 15  2  0  0  0  0
  2  4  1  0  0  0  0
  2  5  1  0  0  0  0
  2  6  1  0  0  0  0
  2 24  1  0  0  0  0
  3 15  1  0  0  0  0
  3 16  1  0  0  0  0
  3 17  1  0  0  0  0
  4  7  1  0  0  0  0
  4 25  1  0  0  0  0
  4 26  1  0  0  0  0
  5  9  1  0  0  0  0
  5 27  1  0  0  0  0
  5 28  1  0  0  0  0
  6  8  1  0  0  0  0
  6 29  1  0  0  0  0
  6 30  1  0  0  0  0
  7 10  2  0  0  0  0
  7 11  1  0  0  0  0
  8 31  1  0  0  0  0
  8 35  1  0  0  0  0
  8 36  1  0  0  0  0
  9 32  1  0  0  0  0
  9 33  1  0  0  0  0
  9 34  1  0  0  0  0
 10 13  1  0  0  0  0
 10 37  1  0  0  0  0
 11 14  2  0  0  0  0
 11 38  1  0  0  0  0
 12 13  2  0  0  0  0
 12 14  1  0  0  0  0
 12 15  1  0  0  0  0
 13 39  1  0  0  0  0
 14 40  1  0  0  0  0
 16 18  2  0  0  0  0
 16 19  1  0  0  0  0
 17 41  1  0  0  0  0
 17 42  1  0  0  0  0
 17 43  1  0  0  0  0
 18 21  1  0  0  0  0
 18 44  1  0  0  0  0
 19 22  2  0  0  0  0
 19 45  1  0  0  0  0
 20 21  2  0  0  0  0
 20 22  1  0  0  0  0
 20 23  1  0  0  0  0
 21 46  1  0  0  0  0
 22 47  1  0  0  0  0
 23 48  1  0  0  0  0
 23 49  1  0  0  0  0
 23 50  1  0  0  0  0
M  CHG  1   2   1
M  END
> <PUBCHEM_COMPOUND_CID>
52850957

> <PUBCHEM_COMPOUND_CANONICALIZED>
1

> <PUBCHEM_CACTVS_COMPLEXITY>
351

> <PUBCHEM_CACTVS_HBOND_ACCEPTOR>
1

> <PUBCHEM_CACTVS_HBOND_DONOR>
1

> <PUBCHEM_CACTVS_ROTATABLE_BOND>
6

> <PUBCHEM_CACTVS_SUBSKEYS>
AAADceB7IAAAAAAAAAAAAAAAAAAAAAAAAAAwYAAAAAAAAAABQAAAHgAQAAAADAjBmAQywIPAAACIAiVSUACCAAAlAgAIiIEIZMgIIDLAlZGEIQhglgDIyYcYiACOSAAAAAAAAACQAAAAAAAAAAAAAAAAAA==

> <PUBCHEM_IUPAC_OPENEYE_NAME>
diethyl-[[4-[methyl(p-tolyl)carbamoyl]phenyl]methyl]ammonium

> <PUBCHEM_IUPAC_CAS_NAME>
[4-[(N,4-dimethylanilino)-oxomethyl]phenyl]methyl-diethylammonium

> <PUBCHEM_IUPAC_NAME>
diethyl-[[4-[methyl-(4-methylphenyl)carbamoyl]phenyl]methyl]azanium

> <PUBCHEM_IUPAC_SYSTEMATIC_NAME>
diethyl-[[4-[methyl-(4-methylphenyl)carbamoyl]phenyl]methyl]azanium

> <PUBCHEM_IUPAC_TRADITIONAL_NAME>
diethyl-[4-[methyl(p-tolyl)carbamoyl]benzyl]ammonium

> <PUBCHEM_IUPAC_INCHI>
InChI=1S/C20H26N2O/c1-5-22(6-2)15-17-9-11-18(12-10-17)20(23)21(4)19-13-7-16(3)8-14-19/h7-14H,5-6,15H2,1-4H3/p+1

> <PUBCHEM_IUPAC_INCHIKEY>
ABXBTINEZLHHCJ-UHFFFAOYSA-O

> <PUBCHEM_XLOGP3>
3.3

> <PUBCHEM_EXACT_MASS>
311.212338

> <PUBCHEM_MOLECULAR_FORMULA>
C20H27N2O+

> <PUBCHEM_MOLECULAR_WEIGHT>
311.44118

> <PUBCHEM_OPENEYE_CAN_SMILES>
CC[NH+](CC)CC1=CC=C(C=C1)C(=O)N(C)C2=CC=C(C=C2)C

> <PUBCHEM_OPENEYE_ISO_SMILES>
CC[NH+](CC)CC1=CC=C(C=C1)C(=O)N(C)C2=CC=C(C=C2)C

> <PUBCHEM_CACTVS_TPSA>
24.8

> <PUBCHEM_MONOISOTOPIC_WEIGHT>
311.212338

> <PUBCHEM_TOTAL_CHARGE>
1

> <PUBCHEM_HEAVY_ATOM_COUNT>
23

> <PUBCHEM_ATOM_DEF_STEREO_COUNT>
0

> <PUBCHEM_ATOM_UDEF_STEREO_COUNT>
0

> <PUBCHEM_BOND_DEF_STEREO_COUNT>
0

> <PUBCHEM_BOND_UDEF_STEREO_COUNT>
0

> <PUBCHEM_ISOTOPIC_ATOM_COUNT>
0

> <PUBCHEM_COMPONENT_COUNT>
1

> <PUBCHEM_CACTVS_TAUTO_COUNT>
1

> <PUBCHEM_COORDINATE_TYPE>
1
5
255

> <PUBCHEM_BONDANNOTATIONS>
10  13  8
11  14  8
12  13  8
12  14  8
16  18  8
16  19  8
18  21  8
19  22  8
20  21  8
20  22  8
7  10  8
7  11  8

$$$$
52851167
  -OEChem-11301218032D

 32 33  0     0  0  0  0  0  0999 V2000
    2.8660   -4.2500    0.0000 Cl  0  0  0  0  0  0  0  0  0  0  0  0
    2.0000    0.2500    0.0000 O   0  0  0  0  0  0  0  0  0  0  0  0
    3.7320    0.2500    0.0000 N   0  0  0  0  0  0  0  0  0  0  0  0
    3.7320    1.2500    0.0000 C   0  0  0  0  0  0  0  0  0  0  0  0
    2.8660   -0.2500    0.0000 C   0  0  0  0  0  0  0  0  0  0  0  0
    2.8660    1.7500    0.0000 C   0  0  0  0  0  0  0  0  0  0  0  0
    4.5981    1.7500    0.0000 C   0  0  0  0  0  0  0  0  0  0  0  0
    3.7320    3.2500    0.0000 C   0  0  0  0  0  0  0  0  0  0  0  0
    2.8660   -1.2500    0.0000 C   0  0  0  0  0  0  0  0  0  0  0  0
    2.8660    2.7500    0.0000 C   0  0  0  0  0  0  0  0  0  0  0  0
    4.5981    2.7500    0.0000 C   0  0  0  0  0  0  0  0  0  0  0  0
    4.5981   -0.2500    0.0000 C   0  0  0  0  0  0  0  0  0  0  0  0
    2.0000   -1.7500    0.0000 C   0  0  0  0  0  0  0  0  0  0  0  0
    3.7320   -1.7500    0.0000 C   0  0  0  0  0  0  0  0  0  0  0  0
    3.7320    4.2500    0.0000 C   0  0  0  0  0  0  0  0  0  0  0  0
    2.0000   -2.7500    0.0000 C   0  0  0  0  0  0  0  0  0  0  0  0
    3.7320   -2.7500    0.0000 C   0  0  0  0  0  0  0  0  0  0  0  0
    2.8660   -3.2500    0.0000 C   0  0  0  0  0  0  0  0  0  0  0  0
    2.3291    1.4400    0.0000 H   0  0  0  0  0  0  0  0  0  0  0  0
    5.1350    1.4400    0.0000 H   0  0  0  0  0  0  0  0  0  0  0  0
    2.3291    3.0600    0.0000 H   0  0  0  0  0  0  0  0  0  0  0  0
    5.1350    3.0600    0.0000 H   0  0  0  0  0  0  0  0  0  0  0  0
    4.2881   -0.7869    0.0000 H   0  0  0  0  0  0  0  0  0  0  0  0
    5.1350   -0.5600    0.0000 H   0  0  0  0  0  0  0  0  0  0  0  0
    4.9081    0.2869    0.0000 H   0  0  0  0  0  0  0  0  0  0  0  0
    1.4631   -1.4400    0.0000 H   0  0  0  0  0  0  0  0  0  0  0  0
    4.2690   -1.4400    0.0000 H   0  0  0  0  0  0  0  0  0  0  0  0
    4.3520    4.2500    0.0000 H   0  0  0  0  0  0  0  0  0  0  0  0
    3.7320    4.8700    0.0000 H   0  0  0  0  0  0  0  0  0  0  0  0
    3.1120    4.2500    0.0000 H   0  0  0  0  0  0  0  0  0  0  0  0
    1.4631   -3.0600    0.0000 H   0  0  0  0  0  0  0  0  0  0  0  0
    4.2690   -3.0600    0.0000 H   0  0  0  0  0  0  0  0  0  0  0  0
  1 18  1  0  0  0  0
  2  5  2  0  0  0  0
  3  4  1  0  0  0  0
  3  5  1  0  0  0  0
  3 12  1  0  0  0  0
  4  6  2  0  0  0  0
  4  7  1  0  0  0  0
  5  9  1  0  0  0  0
  6 10  1  0  0  0  0
  6 19  1  0  0  0  0
  7 11  2  0  0  0  0
  7 20  1  0  0  0  0
  8 10  2  0  0  0  0
  8 11  1  0  0  0  0
  8 15  1  0  0  0  0
  9 13  2  0  0  0  0
  9 14  1  0  0  0  0
 10 21  1  0  0  0  0
 11 22  1  0  0  0  0
 12 23  1  0  0  0  0
 12 24  1  0  0  0  0
 12 25  1  0  0  0  0
 13 16  1  0  0  0  0
 13 26  1  0  0  0  0
 14 17  2  0  0  0  0
 14 27  1  0  0  0  0
 15 28  1  0  0  0  0
 15 29  1  0  0  0  0
 15 30  1  0  0  0  0
 16 18  2  0  0  0  0
 16 31  1  0  0  0  0
 17 18  1  0  0  0  0
 17 32  1  0  0  0  0
M  END
> <PUBCHEM_COMPOUND_CID>
52851167

> <PUBCHEM_COMPOUND_CANONICALIZED>
1

> <PUBCHEM_CACTVS_COMPLEXITY>
278

> <PUBCHEM_CACTVS_HBOND_ACCEPTOR>
1

> <PUBCHEM_CACTVS_HBOND_DONOR>
0

> <PUBCHEM_CACTVS_ROTATABLE_BOND>
2

> <PUBCHEM_CACTVS_SUBSKEYS>
AAADccByIAAEAAAAAAAAAAAAAAAAAAAAAAAwYAAAAAAAAAABQAAAHgIAAAAADAqBmCQywIMAAACIAiVSUACCAAAlBwAIiAEIZsgIIDLBl5GEIQhghgDIyYcYiACODAAAAAAAAAAYAAAAAAAAAAAAAAAAAA==

> <PUBCHEM_IUPAC_OPENEYE_NAME>
4-chloro-N-methyl-N-(p-tolyl)benzamide

> <PUBCHEM_IUPAC_CAS_NAME>
4-chloro-N-methyl-N-(4-methylphenyl)benzamide

> <PUBCHEM_IUPAC_NAME>
4-chloro-N-methyl-N-(4-methylphenyl)benzamide

> <PUBCHEM_IUPAC_SYSTEMATIC_NAME>
4-chloranyl-N-methyl-N-(4-methylphenyl)benzamide

> <PUBCHEM_IUPAC_TRADITIONAL_NAME>
4-chloro-N-methyl-N-(p-tolyl)benzamide

> <PUBCHEM_IUPAC_INCHI>
InChI=1S/C15H14ClNO/c1-11-3-9-14(10-4-11)17(2)15(18)12-5-7-13(16)8-6-12/h3-10H,1-2H3

> <PUBCHEM_IUPAC_INCHIKEY>
ILRAYBKSSIMLKI-UHFFFAOYSA-N

> <PUBCHEM_XLOGP3>
3.4

> <PUBCHEM_EXACT_MASS>
259.076392

> <PUBCHEM_MOLECULAR_FORMULA>
C15H14ClNO

> <PUBCHEM_MOLECULAR_WEIGHT>
259.73076

> <PUBCHEM_OPENEYE_CAN_SMILES>
CC1=CC=C(C=C1)N(C)C(=O)C2=CC=C(C=C2)Cl

> <PUBCHEM_OPENEYE_ISO_SMILES>
CC1=CC=C(C=C1)N(C)C(=O)C2=CC=C(C=C2)Cl

> <PUBCHEM_CACTVS_TPSA>
20.3

> <PUBCHEM_MONOISOTOPIC_WEIGHT>
259.076392

> <PUBCHEM_TOTAL_CHARGE>
0

> <PUBCHEM_HEAVY_ATOM_COUNT>
18

> <PUBCHEM_ATOM_DEF_STEREO_COUNT>
0

> <PUBCHEM_ATOM_UDEF_STEREO_COUNT>
0

> <PUBCHEM_BOND_DEF_STEREO_COUNT>
0

> <PUBCHEM_BOND_UDEF_STEREO_COUNT>
0

> <PUBCHEM_ISOTOPIC_ATOM_COUNT>
0

> <PUBCHEM_COMPONENT_COUNT>
1

> <PUBCHEM_CACTVS_TAUTO_COUNT>
1

> <PUBCHEM_COORDINATE_TYPE>
1
5
255

> <PUBCHEM_BONDANNOTATIONS>
13  16  8
14  17  8
16  18  8
17  18  8
4  6  8
4  7  8
6  10  8
7  11  8
8  10  8
8  11  8
9  13  8
9  14  8

$$$$
52856371
  -OEChem-11301218042D

 43 45  0     1  0  0  0  0  0999 V2000
    5.4641   -1.0000    0.0000 N   0  3  3  0  0  0  0  0  0  0  0  0
    2.0000   -1.0000    0.0000 N   0  0  0  0  0  0  0  0  0  0  0  0
    6.3301   -0.5000    0.0000 C   0  0  0  0  0  0  0  0  0  0  0  0
    4.5981   -1.5000    0.0000 C   0  0  0  0  0  0  0  0  0  0  0  0
    7.1962   -1.0000    0.0000 C   0  0  0  0  0  0  0  0  0  0  0  0
    4.9641   -0.1340    0.0000 C   0  0  0  0  0  0  0  0  0  0  0  0
    8.0622   -0.5000    0.0000 C   0  0  0  0  0  0  0  0  0  0  0  0
    3.7320   -1.0000    0.0000 C   0  0  0  0  0  0  0  0  0  0  0  0
    7.1962   -2.0000    0.0000 C   0  0  0  0  0  0  0  0  0  0  0  0
    8.0622    0.5000    0.0000 C   0  0  0  0  0  0  0  0  0  0  0  0
    8.9282   -1.0000    0.0000 C   0  0  0  0  0  0  0  0  0  0  0  0
    3.7320    0.0000    0.0000 C   0  0  0  0  0  0  0  0  0  0  0  0
    8.0622   -2.5000    0.0000 C   0  0  0  0  0  0  0  0  0  0  0  0
    2.8660   -1.5000    0.0000 C   0  0  0  0  0  0  0  0  0  0  0  0
    8.9282   -2.0000    0.0000 C   0  0  0  0  0  0  0  0  0  0  0  0
    7.1962    1.0000    0.0000 C   0  0  0  0  0  0  0  0  0  0  0  0
    8.9282    1.0000    0.0000 C   0  0  0  0  0  0  0  0  0  0  0  0
    2.8660    0.5000    0.0000 C   0  0  0  0  0  0  0  0  0  0  0  0
    7.1962    2.0000    0.0000 C   0  0  0  0  0  0  0  0  0  0  0  0
    8.9282    2.0000    0.0000 C   0  0  0  0  0  0  0  0  0  0  0  0
    2.0000    0.0000    0.0000 C   0  0  0  0  0  0  0  0  0  0  0  0
    8.0622    2.5000    0.0000 C   0  0  0  0  0  0  0  0  0  0  0  0
    5.7741   -1.5369    0.0000 H   0  0  0  0  0  0  0  0  0  0  0  0
    6.7287   -0.0251    0.0000 H   0  0  0  0  0  0  0  0  0  0  0  0
    5.9316   -0.0251    0.0000 H   0  0  0  0  0  0  0  0  0  0  0  0
    4.1996   -1.9750    0.0000 H   0  0  0  0  0  0  0  0  0  0  0  0
    4.9966   -1.9750    0.0000 H   0  0  0  0  0  0  0  0  0  0  0  0
    5.5010    0.1760    0.0000 H   0  0  0  0  0  0  0  0  0  0  0  0
    4.6541    0.4030    0.0000 H   0  0  0  0  0  0  0  0  0  0  0  0
    4.4272   -0.4440    0.0000 H   0  0  0  0  0  0  0  0  0  0  0  0
    6.6592   -2.3100    0.0000 H   0  0  0  0  0  0  0  0  0  0  0  0
    9.4651   -0.6900    0.0000 H   0  0  0  0  0  0  0  0  0  0  0  0
    4.2690    0.3100    0.0000 H   0  0  0  0  0  0  0  0  0  0  0  0
    8.0622   -3.1200    0.0000 H   0  0  0  0  0  0  0  0  0  0  0  0
    2.8660   -2.1200    0.0000 H   0  0  0  0  0  0  0  0  0  0  0  0
    9.4651   -2.3100    0.0000 H   0  0  0  0  0  0  0  0  0  0  0  0
    6.6592    0.6900    0.0000 H   0  0  0  0  0  0  0  0  0  0  0  0
    9.4651    0.6900    0.0000 H   0  0  0  0  0  0  0  0  0  0  0  0
    2.8660    1.1200    0.0000 H   0  0  0  0  0  0  0  0  0  0  0  0
    6.6592    2.3100    0.0000 H   0  0  0  0  0  0  0  0  0  0  0  0
    9.4651    2.3100    0.0000 H   0  0  0  0  0  0  0  0  0  0  0  0
    1.4631    0.3100    0.0000 H   0  0  0  0  0  0  0  0  0  0  0  0
    8.0622    3.1200    0.0000 H   0  0  0  0  0  0  0  0  0  0  0  0
  1  3  1  0  0  0  0
  1  4  1  0  0  0  0
  1  6  1  0  0  0  0
  1 23  1  0  0  0  0
  2 14  1  0  0  0  0
  2 21  2  0  0  0  0
  3  5  1  0  0  0  0
  3 24  1  0  0  0  0
  3 25  1  0  0  0  0
  4  8  1  0  0  0  0
  4 26  1  0  0  0  0
  4 27  1  0  0  0  0
  5  7  1  0  0  0  0
  5  9  2  0  0  0  0
  6 28  1  0  0  0  0
  6 29  1  0  0  0  0
  6 30  1  0  0  0  0
  7 10  1  0  0  0  0
  7 11  2  0  0  0  0
  8 12  1  0  0  0  0
  8 14  2  0  0  0  0
  9 13  1  0  0  0  0
  9 31  1  0  0  0  0
 10 16  2  0  0  0  0
 10 17  1  0  0  0  0
 11 15  1  0  0  0  0
 11 32  1  0  0  0  0
 12 18  2  0  0  0  0
 12 33  1  0  0  0  0
 13 15  2  0  0  0  0
 13 34  1  0  0  0  0
 14 35  1  0  0  0  0
 15 36  1  0  0  0  0
 16 19  1  0  0  0  0
 16 37  1  0  0  0  0
 17 20  2  0  0  0  0
 17 38  1  0  0  0  0
 18 21  1  0  0  0  0
 18 39  1  0  0  0  0
 19 22  2  0  0  0  0
 19 40  1  0  0  0  0
 20 22  1  0  0  0  0
 20 41  1  0  0  0  0
 21 42  1  0  0  0  0
 22 43  1  0  0  0  0
M  CHG  1   1   1
M  END
> <PUBCHEM_COMPOUND_CID>
52856371

> <PUBCHEM_COMPOUND_CANONICALIZED>
1

> <PUBCHEM_CACTVS_COMPLEXITY>
311

> <PUBCHEM_CACTVS_HBOND_ACCEPTOR>
1

> <PUBCHEM_CACTVS_HBOND_DONOR>
1

> <PUBCHEM_CACTVS_ROTATABLE_BOND>
5

> <PUBCHEM_CACTVS_SUBSKEYS>
AAADceB7AAAAAAAAAAAAAAAAAAAAAAAAAAA8YIAAAAAAAAAB0AAAHAAQAAAADADBGgQ+gJPIEACgAjBnRACCgCAxAiAI2KA4ZJgIIOLA0ZGEIAhggADIyAcQgMAOgAAAAAAQAAAAAAAAACAAAAAAAAAAAA==

> <PUBCHEM_IUPAC_OPENEYE_NAME>
methyl-[(2-phenylphenyl)methyl]-(3-pyridylmethyl)ammonium

> <PUBCHEM_IUPAC_CAS_NAME>
methyl-[(2-phenylphenyl)methyl]-(3-pyridinylmethyl)ammonium

> <PUBCHEM_IUPAC_NAME>
methyl-[(2-phenylphenyl)methyl]-(pyridin-3-ylmethyl)azanium

> <PUBCHEM_IUPAC_SYSTEMATIC_NAME>
methyl-[(2-phenylphenyl)methyl]-(pyridin-3-ylmethyl)azanium

> <PUBCHEM_IUPAC_TRADITIONAL_NAME>
methyl-(2-phenylbenzyl)-(3-pyridylmethyl)ammonium

> <PUBCHEM_IUPAC_INCHI>
InChI=1S/C20H20N2/c1-22(15-17-8-7-13-21-14-17)16-19-11-5-6-12-20(19)18-9-3-2-4-10-18/h2-14H,15-16H2,1H3/p+1

> <PUBCHEM_IUPAC_INCHIKEY>
JSGHPDCFBWDQMX-UHFFFAOYSA-O

> <PUBCHEM_XLOGP3>
3.6

> <PUBCHEM_EXACT_MASS>
289.170474

> <PUBCHEM_MOLECULAR_FORMULA>
C20H21N2+

> <PUBCHEM_MOLECULAR_WEIGHT>
289.39414

> <PUBCHEM_OPENEYE_CAN_SMILES>
C[NH+](CC1=CN=CC=C1)CC2=CC=CC=C2C3=CC=CC=C3

> <PUBCHEM_OPENEYE_ISO_SMILES>
C[NH+](CC1=CN=CC=C1)CC2=CC=CC=C2C3=CC=CC=C3

> <PUBCHEM_CACTVS_TPSA>
17.3

> <PUBCHEM_MONOISOTOPIC_WEIGHT>
289.170474

> <PUBCHEM_TOTAL_CHARGE>
1

> <PUBCHEM_HEAVY_ATOM_COUNT>
22

> <PUBCHEM_ATOM_DEF_STEREO_COUNT>
0

> <PUBCHEM_ATOM_UDEF_STEREO_COUNT>
0

> <PUBCHEM_BOND_DEF_STEREO_COUNT>
0

> <PUBCHEM_BOND_UDEF_STEREO_COUNT>
0

> <PUBCHEM_ISOTOPIC_ATOM_COUNT>
0

> <PUBCHEM_COMPONENT_COUNT>
1

> <PUBCHEM_CACTVS_TAUTO_COUNT>
1

> <PUBCHEM_COORDINATE_TYPE>
1
5
255

> <PUBCHEM_BONDANNOTATIONS>
10  16  8
10  17  8
11  15  8
12  18  8
13  15  8
16  19  8
17  20  8
18  21  8
19  22  8
2  14  8
2  21  8
20  22  8
5  7  8
5  9  8
7  11  8
8  12  8
8  14  8
9  13  8

$$$$
52862583
  -OEChem-11301218042D

 45 46  0     1  0  0  0  0  0999 V2000
    4.5981    0.9827    0.0000 O   0  0  0  0  0  0  0  0  0  0  0  0
    3.7320   -2.5173    0.0000 N   0  3  3  0  0  0  0  0  0  0  0  0
    5.4641   -0.5173    0.0000 N   0  0  0  0  0  0  0  0  0  0  0  0
    6.3301    0.9827    0.0000 N   0  0  0  0  0  0  0  0  0  0  0  0
    2.8660   -3.0173    0.0000 C   0  0  0  0  0  0  0  0  0  0  0  0
    4.5981   -2.0173    0.0000 C   0  0  0  0  0  0  0  0  0  0  0  0
    4.2320   -3.3834    0.0000 C   0  0  0  0  0  0  0  0  0  0  0  0
    4.5981   -1.0173    0.0000 C   0  0  0  0  0  0  0  0  0  0  0  0
    2.8660   -4.0173    0.0000 C   0  0  0  0  0  0  0  0  0  0  0  0
    2.0000   -2.5173    0.0000 C   0  0  0  0  0  0  0  0  0  0  0  0
    5.4641    0.4827    0.0000 C   0  0  0  0  0  0  0  0  0  0  0  0
    6.3301    1.9827    0.0000 C   0  0  0  0  0  0  0  0  0  0  0  0
    7.1962    2.4827    0.0000 C   0  0  0  0  0  0  0  0  0  0  0  0
    7.1962    3.4827    0.0000 C   0  0  0  0  0  0  0  0  0  0  0  0
    5.4641    2.4827    0.0000 C   0  0  0  0  0  0  0  0  0  0  0  0
    8.0901    1.9480    0.0000 C   0  0  0  0  0  0  0  0  0  0  0  0
    6.3301    3.9827    0.0000 C   0  0  0  0  0  0  0  0  0  0  0  0
    5.4641    3.4827    0.0000 C   0  0  0  0  0  0  0  0  0  0  0  0
    8.0901    4.0173    0.0000 C   0  0  0  0  0  0  0  0  0  0  0  0
    8.9962    2.4618    0.0000 C   0  0  0  0  0  0  0  0  0  0  0  0
    8.9962    3.5035    0.0000 C   0  0  0  0  0  0  0  0  0  0  0  0
    3.4220   -1.9804    0.0000 H   0  0  0  0  0  0  0  0  0  0  0  0
    2.8660   -2.3973    0.0000 H   0  0  0  0  0  0  0  0  0  0  0  0
    4.8101   -2.5999    0.0000 H   0  0  0  0  0  0  0  0  0  0  0  0
    5.2087   -1.9097    0.0000 H   0  0  0  0  0  0  0  0  0  0  0  0
    3.6951   -3.6934    0.0000 H   0  0  0  0  0  0  0  0  0  0  0  0
    4.5420   -3.9203    0.0000 H   0  0  0  0  0  0  0  0  0  0  0  0
    4.7690   -3.0734    0.0000 H   0  0  0  0  0  0  0  0  0  0  0  0
    4.3860   -0.4347    0.0000 H   0  0  0  0  0  0  0  0  0  0  0  0
    3.9875   -1.1250    0.0000 H   0  0  0  0  0  0  0  0  0  0  0  0
    2.3100   -1.9804    0.0000 H   0  0  0  0  0  0  0  0  0  0  0  0
    2.2460   -4.0173    0.0000 H   0  0  0  0  0  0  0  0  0  0  0  0
    2.8660   -4.6373    0.0000 H   0  0  0  0  0  0  0  0  0  0  0  0
    3.4860   -4.0173    0.0000 H   0  0  0  0  0  0  0  0  0  0  0  0
    1.4631   -2.2073    0.0000 H   0  0  0  0  0  0  0  0  0  0  0  0
    1.6900   -3.0543    0.0000 H   0  0  0  0  0  0  0  0  0  0  0  0
    6.0010   -0.8273    0.0000 H   0  0  0  0  0  0  0  0  0  0  0  0
    6.8671    0.6727    0.0000 H   0  0  0  0  0  0  0  0  0  0  0  0
    4.9272    2.1727    0.0000 H   0  0  0  0  0  0  0  0  0  0  0  0
    8.0829    1.3280    0.0000 H   0  0  0  0  0  0  0  0  0  0  0  0
    6.3301    4.6027    0.0000 H   0  0  0  0  0  0  0  0  0  0  0  0
    4.9272    3.7927    0.0000 H   0  0  0  0  0  0  0  0  0  0  0  0
    8.0829    4.6373    0.0000 H   0  0  0  0  0  0  0  0  0  0  0  0
    9.5319    2.1498    0.0000 H   0  0  0  0  0  0  0  0  0  0  0  0
    9.5319    3.8156    0.0000 H   0  0  0  0  0  0  0  0  0  0  0  0
  1 11  2  0  0  0  0
  2  5  1  0  0  0  0
  2  6  1  0  0  0  0
  2  7  1  0  0  0  0
  2 22  1  0  0  0  0
  3  8  1  0  0  0  0
  3 11  1  0  0  0  0
  3 37  1  0  0  0  0
  4 11  1  0  0  0  0
  4 12  1  0  0  0  0
  4 38  1  0  0  0  0
  5  9  1  0  0  0  0
  5 10  1  0  0  0  0
  5 23  1  0  0  0  0
  6  8  1  0  0  0  0
  6 24  1  0  0  0  0
  6 25  1  0  0  0  0
  7 26  1  0  0  0  0
  7 27  1  0  0  0  0
  7 28  1  0  0  0  0
  8 29  1  0  0  0  0
  8 30  1  0  0  0  0
  9 32  1  0  0  0  0
  9 33  1  0  0  0  0
  9 34  1  0  0  0  0
 10 31  1  0  0  0  0
 10 35  1  0  0  0  0
 10 36  1  0  0  0  0
 12 13  1  0  0  0  0
 12 15  2  0  0  0  0
 13 14  1  0  0  0  0
 13 16  2  0  0  0  0
 14 17  1  0  0  0  0
 14 19  2  0  0  0  0
 15 18  1  0  0  0  0
 15 39  1  0  0  0  0
 16 20  1  0  0  0  0
 16 40  1  0  0  0  0
 17 18  2  0  0  0  0
 17 41  1  0  0  0  0
 18 42  1  0  0  0  0
 19 21  1  0  0  0  0
 19 43  1  0  0  0  0
 20 21  2  0  0  0  0
 20 44  1  0  0  0  0
 21 45  1  0  0  0  0
M  CHG  1   2   1
M  END
> <PUBCHEM_COMPOUND_CID>
52862583

> <PUBCHEM_COMPOUND_CANONICALIZED>
1

> <PUBCHEM_CACTVS_COMPLEXITY>
332

> <PUBCHEM_CACTVS_HBOND_ACCEPTOR>
1

> <PUBCHEM_CACTVS_HBOND_DONOR>
3

> <PUBCHEM_CACTVS_ROTATABLE_BOND>
5

> <PUBCHEM_CACTVS_SUBSKEYS>
AAADceB7IAAAAAAAAAAAAAAAAAAAAAAAAAAwYAAAAAAAAADBUAAAHgAQAAAADCjBGAQzwMPAAACIAiRCUACCAAAhAgAIiIAIZIiIYCLAkZGUIAholgLIyCcQgIAOgAAAQAASAAAAAACAACQAAAAAAAAAAA==

> <PUBCHEM_IUPAC_OPENEYE_NAME>
isopropyl-methyl-[2-(1-naphthylcarbamoylamino)ethyl]ammonium

> <PUBCHEM_IUPAC_CAS_NAME>
methyl-[2-[[(1-naphthalenylamino)-oxomethyl]amino]ethyl]-propan-2-ylammonium

> <PUBCHEM_IUPAC_NAME>
methyl-[2-(naphthalen-1-ylcarbamoylamino)ethyl]-propan-2-ylazanium

> <PUBCHEM_IUPAC_SYSTEMATIC_NAME>
methyl-[2-(naphthalen-1-ylcarbamoylamino)ethyl]-propan-2-yl-azanium

> <PUBCHEM_IUPAC_TRADITIONAL_NAME>
isopropyl-methyl-[2-(1-naphthylcarbamoylamino)ethyl]ammonium

> <PUBCHEM_IUPAC_INCHI>
InChI=1S/C17H23N3O/c1-13(2)20(3)12-11-18-17(21)19-16-10-6-8-14-7-4-5-9-15(14)16/h4-10,13H,11-12H2,1-3H3,(H2,18,19,21)/p+1

> <PUBCHEM_IUPAC_INCHIKEY>
AHQHWVISNSGTKK-UHFFFAOYSA-O

> <PUBCHEM_XLOGP3>
2.3

> <PUBCHEM_EXACT_MASS>
286.191937

> <PUBCHEM_MOLECULAR_FORMULA>
C17H24N3O+

> <PUBCHEM_MOLECULAR_WEIGHT>
286.39196

> <PUBCHEM_OPENEYE_CAN_SMILES>
CC(C)[NH+](C)CCNC(=O)NC1=CC=CC2=CC=CC=C21

> <PUBCHEM_OPENEYE_ISO_SMILES>
CC(C)[NH+](C)CCNC(=O)NC1=CC=CC2=CC=CC=C21

> <PUBCHEM_CACTVS_TPSA>
45.6

> <PUBCHEM_MONOISOTOPIC_WEIGHT>
286.191937

> <PUBCHEM_TOTAL_CHARGE>
1

> <PUBCHEM_HEAVY_ATOM_COUNT>
21

> <PUBCHEM_ATOM_DEF_STEREO_COUNT>
0

> <PUBCHEM_ATOM_UDEF_STEREO_COUNT>
0

> <PUBCHEM_BOND_DEF_STEREO_COUNT>
0

> <PUBCHEM_BOND_UDEF_STEREO_COUNT>
0

> <PUBCHEM_ISOTOPIC_ATOM_COUNT>
0

> <PUBCHEM_COMPONENT_COUNT>
1

> <PUBCHEM_CACTVS_TAUTO_COUNT>
3

> <PUBCHEM_COORDINATE_TYPE>
1
5
255

> <PUBCHEM_BONDANNOTATIONS>
12  13  8
12  15  8
13  14  8
13  16  8
14  17  8
14  19  8
15  18  8
16  20  8
17  18  8
19  21  8
20  21  8

$$$$
52866445
  -OEChem-11301218042D

 45 46  0     0  0  0  0  0  0999 V2000
    6.3301    1.1160    0.0000 O   0  0  0  0  0  0  0  0  0  0  0  0
    2.8660   -2.8840    0.0000 N   0  3  0  0  0  0  0  0  0  0  0  0
    4.5981    1.1160    0.0000 N   0  0  0  0  0  0  0  0  0  0  0  0
    2.3660   -3.7500    0.0000 C   0  0  0  0  0  0  0  0  0  0  0  0
    3.8660   -2.8840    0.0000 C   0  0  0  0  0  0  0  0  0  0  0  0
    2.8660   -4.6160    0.0000 C   0  0  0  0  0  0  0  0  0  0  0  0
    4.3660   -3.7500    0.0000 C   0  0  0  0  0  0  0  0  0  0  0  0
    3.8660   -4.6160    0.0000 C   0  0  0  0  0  0  0  0  0  0  0  0
    2.8660   -1.8840    0.0000 C   0  0  0  0  0  0  0  0  0  0  0  0
    3.7320   -1.3840    0.0000 C   0  0  0  0  0  0  0  0  0  0  0  0
    3.7320   -0.3840    0.0000 C   0  0  0  0  0  0  0  0  0  0  0  0
    4.5981   -1.8840    0.0000 C   0  0  0  0  0  0  0  0  0  0  0  0
    4.5981    0.1160    0.0000 C   0  0  0  0  0  0  0  0  0  0  0  0
    5.4641   -1.3840    0.0000 C   0  0  0  0  0  0  0  0  0  0  0  0
    5.4641   -0.3840    0.0000 C   0  0  0  0  0  0  0  0  0  0  0  0
    5.4641    1.6160    0.0000 C   0  0  0  0  0  0  0  0  0  0  0  0
    5.4641    2.6160    0.0000 C   0  0  0  0  0  0  0  0  0  0  0  0
    6.3301    3.1160    0.0000 C   0  0  0  0  0  0  0  0  0  0  0  0
    6.3301    4.1160    0.0000 C   0  0  0  0  0  0  0  0  0  0  0  0
    7.1962    4.6160    0.0000 C   0  0  0  0  0  0  0  0  0  0  0  0
    2.0000   -2.3840    0.0000 H   0  0  0  0  0  0  0  0  0  0  0  0
    4.4486   -2.6719    0.0000 H   0  0  0  0  0  0  0  0  0  0  0  0
    3.7584   -2.2734    0.0000 H   0  0  0  0  0  0  0  0  0  0  0  0
    1.8911   -3.3515    0.0000 H   0  0  0  0  0  0  0  0  0  0  0  0
    1.8911   -4.1485    0.0000 H   0  0  0  0  0  0  0  0  0  0  0  0
    4.8410   -4.1485    0.0000 H   0  0  0  0  0  0  0  0  0  0  0  0
    4.8410   -3.3515    0.0000 H   0  0  0  0  0  0  0  0  0  0  0  0
    2.2834   -4.8281    0.0000 H   0  0  0  0  0  0  0  0  0  0  0  0
    2.9737   -5.2266    0.0000 H   0  0  0  0  0  0  0  0  0  0  0  0
    3.7584   -5.2266    0.0000 H   0  0  0  0  0  0  0  0  0  0  0  0
    4.4486   -4.8281    0.0000 H   0  0  0  0  0  0  0  0  0  0  0  0
    2.6540   -1.3014    0.0000 H   0  0  0  0  0  0  0  0  0  0  0  0
    2.2554   -1.9916    0.0000 H   0  0  0  0  0  0  0  0  0  0  0  0
    3.1951   -0.0740    0.0000 H   0  0  0  0  0  0  0  0  0  0  0  0
    4.5981   -2.5040    0.0000 H   0  0  0  0  0  0  0  0  0  0  0  0
    6.0010   -1.6940    0.0000 H   0  0  0  0  0  0  0  0  0  0  0  0
    6.0010   -0.0740    0.0000 H   0  0  0  0  0  0  0  0  0  0  0  0
    4.0611    1.4260    0.0000 H   0  0  0  0  0  0  0  0  0  0  0  0
    5.2520    3.1986    0.0000 H   0  0  0  0  0  0  0  0  0  0  0  0
    4.8535    2.5084    0.0000 H   0  0  0  0  0  0  0  0  0  0  0  0
    6.5422    2.5334    0.0000 H   0  0  0  0  0  0  0  0  0  0  0  0
    6.9407    3.2237    0.0000 H   0  0  0  0  0  0  0  0  0  0  0  0
    5.7932    4.4260    0.0000 H   0  0  0  0  0  0  0  0  0  0  0  0
    7.7331    4.3060    0.0000 H   0  0  0  0  0  0  0  0  0  0  0  0
    7.1962    5.2360    0.0000 H   0  0  0  0  0  0  0  0  0  0  0  0
  1 16  2  0  0  0  0
  2  4  1  0  0  0  0
  2  5  1  0  0  0  0
  2  9  1  0  0  0  0
  2 21  1  0  0  0  0
  3 13  1  0  0  0  0
  3 16  1  0  0  0  0
  3 38  1  0  0  0  0
  4  6  1  0  0  0  0
  4 24  1  0  0  0  0
  4 25  1  0  0  0  0
  5  7  1  0  0  0  0
  5 22  1  0  0  0  0
  5 23  1  0  0  0  0
  6  8  1  0  0  0  0
  6 28  1  0  0  0  0
  6 29  1  0  0  0  0
  7  8  1  0  0  0  0
  7 26  1  0  0  0  0
  7 27  1  0  0  0  0
  8 30  1  0  0  0  0
  8 31  1  0  0  0  0
  9 10  1  0  0  0  0
  9 32  1  0  0  0  0
  9 33  1  0  0  0  0
 10 11  2  0  0  0  0
 10 12  1  0  0  0  0
 11 13  1  0  0  0  0
 11 34  1  0  0  0  0
 12 14  2  0  0  0  0
 12 35  1  0  0  0  0
 13 15  2  0  0  0  0
 14 15  1  0  0  0  0
 14 36  1  0  0  0  0
 15 37  1  0  0  0  0
 16 17  1  0  0  0  0
 17 18  1  0  0  0  0
 17 39  1  0  0  0  0
 17 40  1  0  0  0  0
 18 19  1  0  0  0  0
 18 41  1  0  0  0  0
 18 42  1  0  0  0  0
 19 20  2  0  0  0  0
 19 43  1  0  0  0  0
 20 44  1  0  0  0  0
 20 45  1  0  0  0  0
M  CHG  1   2   1
M  END
> <PUBCHEM_COMPOUND_CID>
52866445

> <PUBCHEM_COMPOUND_CANONICALIZED>
1

> <PUBCHEM_CACTVS_COMPLEXITY>
310

> <PUBCHEM_CACTVS_HBOND_ACCEPTOR>
1

> <PUBCHEM_CACTVS_HBOND_DONOR>
2

> <PUBCHEM_CACTVS_ROTATABLE_BOND>
6

> <PUBCHEM_CACTVS_SUBSKEYS>
AAADceB7IAAAAAAAAAAAAAAAAAAAAAAAAAA8QAAAAAAAAAABAAAAHgAQAAAADAjBmAQwwIPAAACIAiVSUACCAAAhAgAIiIEIZIgIIDLAkZGEIAhglADIyAcQgAAOAAAAQAAAAAAAAACAAAAAAAAAAAAAAA==

> <PUBCHEM_IUPAC_OPENEYE_NAME>
N-[3-(piperidin-1-ium-1-ylmethyl)phenyl]pent-4-enamide

> <PUBCHEM_IUPAC_CAS_NAME>
N-[3-(1-piperidin-1-iumylmethyl)phenyl]-4-pentenamide

> <PUBCHEM_IUPAC_NAME>
N-[3-(piperidin-1-ium-1-ylmethyl)phenyl]pent-4-enamide

> <PUBCHEM_IUPAC_SYSTEMATIC_NAME>
N-[3-(piperidin-1-ium-1-ylmethyl)phenyl]pent-4-enamide

> <PUBCHEM_IUPAC_TRADITIONAL_NAME>
N-[3-(piperidin-1-ium-1-ylmethyl)phenyl]pent-4-enamide

> <PUBCHEM_IUPAC_INCHI>
InChI=1S/C17H24N2O/c1-2-3-10-17(20)18-16-9-7-8-15(13-16)14-19-11-5-4-6-12-19/h2,7-9,13H,1,3-6,10-12,14H2,(H,18,20)/p+1

> <PUBCHEM_IUPAC_INCHIKEY>
MWGAKRBLGCZRFD-UHFFFAOYSA-O

> <PUBCHEM_XLOGP3>
3.4

> <PUBCHEM_EXACT_MASS>
273.196688

> <PUBCHEM_MOLECULAR_FORMULA>
C17H25N2O+

> <PUBCHEM_MOLECULAR_WEIGHT>
273.3932

> <PUBCHEM_OPENEYE_CAN_SMILES>
C=CCCC(=O)NC1=CC=CC(=C1)C[NH+]2CCCCC2

> <PUBCHEM_OPENEYE_ISO_SMILES>
C=CCCC(=O)NC1=CC=CC(=C1)C[NH+]2CCCCC2

> <PUBCHEM_CACTVS_TPSA>
33.5

> <PUBCHEM_MONOISOTOPIC_WEIGHT>
273.196688

> <PUBCHEM_TOTAL_CHARGE>
1

> <PUBCHEM_HEAVY_ATOM_COUNT>
20

> <PUBCHEM_ATOM_DEF_STEREO_COUNT>
0

> <PUBCHEM_ATOM_UDEF_STEREO_COUNT>
0

> <PUBCHEM_BOND_DEF_STEREO_COUNT>
0

> <PUBCHEM_BOND_UDEF_STEREO_COUNT>
0

> <PUBCHEM_ISOTOPIC_ATOM_COUNT>
0

> <PUBCHEM_COMPONENT_COUNT>
1

> <PUBCHEM_CACTVS_TAUTO_COUNT>
3

> <PUBCHEM_COORDINATE_TYPE>
1
5
255

> <PUBCHEM_BONDANNOTATIONS>
10  11  8
10  12  8
11  13  8
12  14  8
13  15  8
14  15  8

$$$$
