24076476
  -OEChem-11301217342D

 42 44  0     0  0  0  0  0  0999 V2000
   10.6741    2.4759    0.0000 S   0  0  0  0  0  0  0  0  0  0  0  0
    3.7320   -1.0570    0.0000 O   0  0  0  0  0  0  0  0  0  0  0  0
    7.1441   -0.1450    0.0000 O   0  0  0  0  0  0  0  0  0  0  0  0
    2.0000   -4.0570    0.0000 O   0  0  0  0  0  0  0  0  0  0  0  0
    7.5013   -1.8398    0.0000 O   0  0  0  0  0  0  0  0  0  0  0  0
    7.7654    1.7561    0.0000 O   0  0  0  0  0  0  0  0  0  0  0  0
   11.3830    5.0570    0.0000 O   0  5  0  0  0  0  0  0  0  0  0  0
   12.3987    3.6539    0.0000 O   0  0  0  0  0  0  0  0  0  0  0  0
    5.5443   -2.2522    0.0000 N   0  0  0  0  0  0  0  0  0  0  0  0
    3.7320   -4.0570    0.0000 N   0  0  0  0  0  0  0  0  0  0  0  0
    2.8660   -2.5570    0.0000 N   0  0  0  0  0  0  0  0  0  0  0  0
    5.5443   -3.8617    0.0000 N   0  0  0  0  0  0  0  0  0  0  0  0
    9.4118    1.2180    0.0000 N   0  0  0  0  0  0  0  0  0  0  0  0
    9.1361    2.9785    0.0000 N   0  0  0  0  0  0  0  0  0  0  0  0
   11.4858    4.0623    0.0000 N   0  3  0  0  0  0  0  0  0  0  0  0
    4.5981   -2.5570    0.0000 C   0  0  0  0  0  0  0  0  0  0  0  0
    4.5981   -3.5570    0.0000 C   0  0  0  0  0  0  0  0  0  0  0  0
    3.7320   -2.0570    0.0000 C   0  0  0  0  0  0  0  0  0  0  0  0
    5.8550   -1.3017    0.0000 C   0  0  0  0  0  0  0  0  0  0  0  0
    2.8660   -3.5570    0.0000 C   0  0  0  0  0  0  0  0  0  0  0  0
    6.1279   -3.0570    0.0000 C   0  0  0  0  0  0  0  0  0  0  0  0
    3.7320   -5.0570    0.0000 C   0  0  0  0  0  0  0  0  0  0  0  0
    2.0000   -2.0570    0.0000 C   0  0  0  0  0  0  0  0  0  0  0  0
    6.8335   -1.0955    0.0000 C   0  0  0  0  0  0  0  0  0  0  0  0
    8.1226    0.0612    0.0000 C   0  0  0  0  0  0  0  0  0  0  0  0
    8.4333    1.0118    0.0000 C   0  0  0  0  0  0  0  0  0  0  0  0
    9.7225    2.1685    0.0000 C   0  0  0  0  0  0  0  0  0  0  0  0
   10.6758    3.4759    0.0000 C   0  0  0  0  0  0  0  0  0  0  0  0
    9.7253    3.7865    0.0000 C   0  0  0  0  0  0  0  0  0  0  0  0
    5.8344   -0.6821    0.0000 H   0  0  0  0  0  0  0  0  0  0  0  0
    5.2411   -1.2144    0.0000 H   0  0  0  0  0  0  0  0  0  0  0  0
    6.7479   -3.0570    0.0000 H   0  0  0  0  0  0  0  0  0  0  0  0
    3.1120   -5.0570    0.0000 H   0  0  0  0  0  0  0  0  0  0  0  0
    3.7320   -5.6770    0.0000 H   0  0  0  0  0  0  0  0  0  0  0  0
    4.3520   -5.0570    0.0000 H   0  0  0  0  0  0  0  0  0  0  0  0
    2.3100   -1.5200    0.0000 H   0  0  0  0  0  0  0  0  0  0  0  0
    1.4631   -1.7470    0.0000 H   0  0  0  0  0  0  0  0  0  0  0  0
    1.6900   -2.5939    0.0000 H   0  0  0  0  0  0  0  0  0  0  0  0
    8.1432   -0.5584    0.0000 H   0  0  0  0  0  0  0  0  0  0  0  0
    8.7364   -0.0261    0.0000 H   0  0  0  0  0  0  0  0  0  0  0  0
    9.8259    0.7565    0.0000 H   0  0  0  0  0  0  0  0  0  0  0  0
    9.5347    4.3765    0.0000 H   0  0  0  0  0  0  0  0  0  0  0  0
  1 27  1  0  0  0  0
  1 28  1  0  0  0  0
  2 18  2  0  0  0  0
  3 24  1  0  0  0  0
  3 25  1  0  0  0  0
  4 20  2  0  0  0  0
  5 24  2  0  0  0  0
  6 26  2  0  0  0  0
  7 15  1  0  0  0  0
  8 15  2  0  0  0  0
  9 16  1  0  0  0  0
  9 19  1  0  0  0  0
  9 21  1  0  0  0  0
 10 17  1  0  0  0  0
 10 20  1  0  0  0  0
 10 22  1  0  0  0  0
 11 18  1  0  0  0  0
 11 20  1  0  0  0  0
 11 23  1  0  0  0  0
 12 17  1  0  0  0  0
 12 21  2  0  0  0  0
 13 26  1  0  0  0  0
 13 27  1  0  0  0  0
 13 41  1  0  0  0  0
 14 27  2  0  0  0  0
 14 29  1  0  0  0  0
 15 28  1  0  0  0  0
 16 17  2  0  0  0  0
 16 18  1  0  0  0  0
 19 24  1  0  0  0  0
 19 30  1  0  0  0  0
 19 31  1  0  0  0  0
 21 32  1  0  0  0  0
 22 33  1  0  0  0  0
 22 34  1  0  0  0  0
 22 35  1  0  0  0  0
 23 36  1  0  0  0  0
 23 37  1  0  0  0  0
 23 38  1  0  0  0  0
 25 26  1  0  0  0  0
 25 39  1  0  0  0  0
 25 40  1  0  0  0  0
 28 29  2  0  0  0  0
 29 42  1  0  0  0  0
M  CHG  2   7  -1  15   1
M  END
> <PUBCHEM_COMPOUND_CID>
24076476

> <PUBCHEM_COMPOUND_CANONICALIZED>
1

> <PUBCHEM_CACTVS_COMPLEXITY>
732

> <PUBCHEM_CACTVS_HBOND_ACCEPTOR>
10

> <PUBCHEM_CACTVS_HBOND_DONOR>
1

> <PUBCHEM_CACTVS_ROTATABLE_BOND>
6

> <PUBCHEM_CACTVS_SUBSKEYS>
AAADccBzuABAAAAAAAAAAAAAAAAAAWLAAAAsAAAAAAAAAFgB4AAAHgQUAAAACAjh1gYvuRfcVAitARf3fwKA8K1XGrlhUA3odEKCSAhASCQXAIgIF6LQAGAAAAAAAAAAAAAAAAAAAAAAAAAAAAAAAAAAAA==

> <PUBCHEM_IUPAC_OPENEYE_NAME>
[2-[(5-nitrothiazol-2-yl)amino]-2-oxo-ethyl] 2-(1,3-dimethyl-2,6-dioxo-purin-7-yl)acetate

> <PUBCHEM_IUPAC_CAS_NAME>
2-(1,3-dimethyl-2,6-dioxo-7-purinyl)acetic acid [2-[(5-nitro-2-thiazolyl)amino]-2-oxoethyl] ester

> <PUBCHEM_IUPAC_NAME>
[2-[(5-nitro-1,3-thiazol-2-yl)amino]-2-oxoethyl] 2-(1,3-dimethyl-2,6-dioxopurin-7-yl)acetate

> <PUBCHEM_IUPAC_SYSTEMATIC_NAME>
[2-[(5-nitro-1,3-thiazol-2-yl)amino]-2-oxidanylidene-ethyl] 2-[1,3-dimethyl-2,6-bis(oxidanylidene)purin-7-yl]ethanoate

> <PUBCHEM_IUPAC_TRADITIONAL_NAME>
2-(2,6-diketo-1,3-dimethyl-purin-7-yl)acetic acid [2-keto-2-[(5-nitrothiazol-2-yl)amino]ethyl] ester

> <PUBCHEM_IUPAC_INCHI>
InChI=1S/C14H13N7O7S/c1-18-11-10(12(24)19(2)14(18)25)20(6-16-11)4-9(23)28-5-7(22)17-13-15-3-8(29-13)21(26)27/h3,6H,4-5H2,1-2H3,(H,15,17,22)

> <PUBCHEM_IUPAC_INCHIKEY>
XHTWVRQEMSVULI-UHFFFAOYSA-N

> <PUBCHEM_XLOGP3>
0

> <PUBCHEM_EXACT_MASS>
423.059717

> <PUBCHEM_MOLECULAR_FORMULA>
C14H13N7O7S

> <PUBCHEM_MOLECULAR_WEIGHT>
423.36072

> <PUBCHEM_OPENEYE_CAN_SMILES>
CN1C2=C(C(=O)N(C1=O)C)N(C=N2)CC(=O)OCC(=O)NC3=NC=C(S3)[N+](=O)[O-]

> <PUBCHEM_OPENEYE_ISO_SMILES>
CN1C2=C(C(=O)N(C1=O)C)N(C=N2)CC(=O)OCC(=O)NC3=NC=C(S3)[N+](=O)[O-]

> <PUBCHEM_CACTVS_TPSA>
201

> <PUBCHEM_MONOISOTOPIC_WEIGHT>
423.059717

> <PUBCHEM_TOTAL_CHARGE>
0

> <PUBCHEM_HEAVY_ATOM_COUNT>
29

> <PUBCHEM_ATOM_DEF_STEREO_COUNT>
0

> <PUBCHEM_ATOM_UDEF_STEREO_COUNT>
0

> <PUBCHEM_BOND_DEF_STEREO_COUNT>
0

> <PUBCHEM_BOND_UDEF_STEREO_COUNT>
0

> <PUBCHEM_ISOTOPIC_ATOM_COUNT>
0

> <PUBCHEM_COMPONENT_COUNT>
1

> <PUBCHEM_CACTVS_TAUTO_COUNT>
5

> <PUBCHEM_COORDINATE_TYPE>
1
5
255

> <PUBCHEM_BONDANNOTATIONS>
1  27  8
1  28  8
10  17  8
10  20  8
11  18  8
11  20  8
12  17  8
12  21  8
14  27  8
14  29  8
16  17  8
16  18  8
28  29  8
9  16  8
9  21  8

$$$$
24076643
  -OEChem-11301217342D

 33 35  0     0  0  0  0  0  0999 V2000
    6.3301    1.8100    0.0000 O   0  0  0  0  0  0  0  0  0  0  0  0
    6.3301   -1.1900    0.0000 N   0  0  0  0  0  0  0  0  0  0  0  0
    5.4641    0.3100    0.0000 N   0  0  0  0  0  0  0  0  0  0  0  0
    4.5981   -1.1900    0.0000 C   0  0  0  0  0  0  0  0  0  0  0  0
    3.7320   -0.6900    0.0000 C   0  0  0  0  0  0  0  0  0  0  0  0
    5.4641   -0.6900    0.0000 C   0  0  0  0  0  0  0  0  0  0  0  0
    7.1962   -0.6900    0.0000 C   0  0  0  0  0  0  0  0  0  0  0  0
    3.7320    0.3100    0.0000 C   0  0  0  0  0  0  0  0  0  0  0  0
    7.1962    0.3100    0.0000 C   0  0  0  0  0  0  0  0  0  0  0  0
    2.8660   -1.1900    0.0000 C   0  0  0  0  0  0  0  0  0  0  0  0
    6.3301    0.8100    0.0000 C   0  0  0  0  0  0  0  0  0  0  0  0
    2.8660    0.8100    0.0000 C   0  0  0  0  0  0  0  0  0  0  0  0
    8.0901   -1.2247    0.0000 C   0  0  0  0  0  0  0  0  0  0  0  0
    8.0901    0.8447    0.0000 C   0  0  0  0  0  0  0  0  0  0  0  0
    4.5981    0.8100    0.0000 C   0  0  0  0  0  0  0  0  0  0  0  0
    2.0000   -0.6900    0.0000 C   0  0  0  0  0  0  0  0  0  0  0  0
    2.0000    0.3100    0.0000 C   0  0  0  0  0  0  0  0  0  0  0  0
    8.9962   -0.7108    0.0000 C   0  0  0  0  0  0  0  0  0  0  0  0
    8.9962    0.3308    0.0000 C   0  0  0  0  0  0  0  0  0  0  0  0
    4.1996   -1.6650    0.0000 H   0  0  0  0  0  0  0  0  0  0  0  0
    4.9966   -1.6650    0.0000 H   0  0  0  0  0  0  0  0  0  0  0  0
    6.3301   -1.8100    0.0000 H   0  0  0  0  0  0  0  0  0  0  0  0
    2.8660   -1.8100    0.0000 H   0  0  0  0  0  0  0  0  0  0  0  0
    2.8660    1.4300    0.0000 H   0  0  0  0  0  0  0  0  0  0  0  0
    8.0829   -1.8446    0.0000 H   0  0  0  0  0  0  0  0  0  0  0  0
    8.0829    1.4646    0.0000 H   0  0  0  0  0  0  0  0  0  0  0  0
    4.9081    0.2731    0.0000 H   0  0  0  0  0  0  0  0  0  0  0  0
    5.1350    1.1200    0.0000 H   0  0  0  0  0  0  0  0  0  0  0  0
    4.2881    1.3469    0.0000 H   0  0  0  0  0  0  0  0  0  0  0  0
    1.4631   -1.0000    0.0000 H   0  0  0  0  0  0  0  0  0  0  0  0
    1.4631    0.6200    0.0000 H   0  0  0  0  0  0  0  0  0  0  0  0
    9.5319   -1.0229    0.0000 H   0  0  0  0  0  0  0  0  0  0  0  0
    9.5319    0.6429    0.0000 H   0  0  0  0  0  0  0  0  0  0  0  0
  1 11  2  0  0  0  0
  2  6  1  0  0  0  0
  2  7  1  0  0  0  0
  2 22  1  0  0  0  0
  3  6  2  0  0  0  0
  3 11  1  0  0  0  0
  4  5  1  0  0  0  0
  4  6  1  0  0  0  0
  4 20  1  0  0  0  0
  4 21  1  0  0  0  0
  5  8  1  0  0  0  0
  5 10  2  0  0  0  0
  7  9  1  0  0  0  0
  7 13  2  0  0  0  0
  8 12  2  0  0  0  0
  8 15  1  0  0  0  0
  9 11  1  0  0  0  0
  9 14  2  0  0  0  0
 10 16  1  0  0  0  0
 10 23  1  0  0  0  0
 12 17  1  0  0  0  0
 12 24  1  0  0  0  0
 13 18  1  0  0  0  0
 13 25  1  0  0  0  0
 14 19  1  0  0  0  0
 14 26  1  0  0  0  0
 15 27  1  0  0  0  0
 15 28  1  0  0  0  0
 15 29  1  0  0  0  0
 16 17  2  0  0  0  0
 16 30  1  0  0  0  0
 17 31  1  0  0  0  0
 18 19  2  0  0  0  0
 18 32  1  0  0  0  0
 19 33  1  0  0  0  0
M  END
> <PUBCHEM_COMPOUND_CID>
24076643

> <PUBCHEM_COMPOUND_CANONICALIZED>
1

> <PUBCHEM_CACTVS_COMPLEXITY>
377

> <PUBCHEM_CACTVS_HBOND_ACCEPTOR>
1

> <PUBCHEM_CACTVS_HBOND_DONOR>
1

> <PUBCHEM_CACTVS_ROTATABLE_BOND>
2

> <PUBCHEM_CACTVS_SUBSKEYS>
AAADccB7IAAAAAAAAAAAAAAAAAAAAAAAAAAwYIAAAAAAAACBQAAAHgAQAAAADAiBmAAzwILAAACoAidydACCAAElAgAJiAEwZMgIIDrA3ZGEIYhgkADIyccYiICOgAAAAAASAAAAAAAAACQAAAAAAAAAAA==

> <PUBCHEM_IUPAC_OPENEYE_NAME>
2-(o-tolylmethyl)-1H-quinazolin-4-one

> <PUBCHEM_IUPAC_CAS_NAME>
2-[(2-methylphenyl)methyl]-1H-quinazolin-4-one

> <PUBCHEM_IUPAC_NAME>
2-[(2-methylphenyl)methyl]-1H-quinazolin-4-one

> <PUBCHEM_IUPAC_SYSTEMATIC_NAME>
2-[(2-methylphenyl)methyl]-1H-quinazolin-4-one

> <PUBCHEM_IUPAC_TRADITIONAL_NAME>
2-(2-methylbenzyl)-1H-quinazolin-4-one

> <PUBCHEM_IUPAC_INCHI>
InChI=1S/C16H14N2O/c1-11-6-2-3-7-12(11)10-15-17-14-9-5-4-8-13(14)16(19)18-15/h2-9H,10H2,1H3,(H,17,18,19)

> <PUBCHEM_IUPAC_INCHIKEY>
FDOGYFFAVMDWFX-UHFFFAOYSA-N

> <PUBCHEM_XLOGP3>
3.1

> <PUBCHEM_EXACT_MASS>
250.110613

> <PUBCHEM_MOLECULAR_FORMULA>
C16H14N2O

> <PUBCHEM_MOLECULAR_WEIGHT>
250.29516

> <PUBCHEM_OPENEYE_CAN_SMILES>
CC1=CC=CC=C1CC2=NC(=O)C3=CC=CC=C3N2

> <PUBCHEM_OPENEYE_ISO_SMILES>
CC1=CC=CC=C1CC2=NC(=O)C3=CC=CC=C3N2

> <PUBCHEM_CACTVS_TPSA>
41.5

> <PUBCHEM_MONOISOTOPIC_WEIGHT>
250.110613

> <PUBCHEM_TOTAL_CHARGE>
0

> <PUBCHEM_HEAVY_ATOM_COUNT>
19

> <PUBCHEM_ATOM_DEF_STEREO_COUNT>
0

> <PUBCHEM_ATOM_UDEF_STEREO_COUNT>
0

> <PUBCHEM_BOND_DEF_STEREO_COUNT>
0

> <PUBCHEM_BOND_UDEF_STEREO_COUNT>
0

> <PUBCHEM_ISOTOPIC_ATOM_COUNT>
0

> <PUBCHEM_COMPONENT_COUNT>
1

> <PUBCHEM_CACTVS_TAUTO_COUNT>
10

> <PUBCHEM_COORDINATE_TYPE>
1
5
255

> <PUBCHEM_BONDANNOTATIONS>
10  16  8
12  17  8
13  18  8
14  19  8
16  17  8
18  19  8
2  6  8
2  7  8
3  11  8
3  6  8
5  10  8
5  8  8
7  13  8
7  9  8
8  12  8
9  11  8
9  14  8

$$$$
24098540
  -OEChem-11301217362D

 26 28  0     0  0  0  0  0  0999 V2000
    5.5981    1.8100    0.0000 O   0  0  0  0  0  0  0  0  0  0  0  0
    3.8660   -1.1900    0.0000 N   0  0  0  0  0  0  0  0  0  0  0  0
    5.5981   -1.1900    0.0000 N   0  0  0  0  0  0  0  0  0  0  0  0
    4.7320    0.3100    0.0000 N   0  0  0  0  0  0  0  0  0  0  0  0
    3.0000   -0.6900    0.0000 C   0  0  0  0  0  0  0  0  0  0  0  0
    2.5000    0.1760    0.0000 C   0  0  0  0  0  0  0  0  0  0  0  0
    2.0000   -0.6900    0.0000 C   0  0  0  0  0  0  0  0  0  0  0  0
    4.7320   -0.6900    0.0000 C   0  0  0  0  0  0  0  0  0  0  0  0
    6.4641   -0.6900    0.0000 C   0  0  0  0  0  0  0  0  0  0  0  0
    6.4641    0.3100    0.0000 C   0  0  0  0  0  0  0  0  0  0  0  0
    5.5981    0.8100    0.0000 C   0  0  0  0  0  0  0  0  0  0  0  0
    7.3580   -1.2247    0.0000 C   0  0  0  0  0  0  0  0  0  0  0  0
    7.3580    0.8447    0.0000 C   0  0  0  0  0  0  0  0  0  0  0  0
    8.2641   -0.7108    0.0000 C   0  0  0  0  0  0  0  0  0  0  0  0
    8.2641    0.3308    0.0000 C   0  0  0  0  0  0  0  0  0  0  0  0
    3.4384   -0.2516    0.0000 H   0  0  0  0  0  0  0  0  0  0  0  0
    2.9750    0.5746    0.0000 H   0  0  0  0  0  0  0  0  0  0  0  0
    2.0250    0.5746    0.0000 H   0  0  0  0  0  0  0  0  0  0  0  0
    1.4174   -0.4779    0.0000 H   0  0  0  0  0  0  0  0  0  0  0  0
    1.8923   -1.3006    0.0000 H   0  0  0  0  0  0  0  0  0  0  0  0
    3.8660   -1.8100    0.0000 H   0  0  0  0  0  0  0  0  0  0  0  0
    5.5981   -1.8100    0.0000 H   0  0  0  0  0  0  0  0  0  0  0  0
    7.3509   -1.8446    0.0000 H   0  0  0  0  0  0  0  0  0  0  0  0
    7.3509    1.4646    0.0000 H   0  0  0  0  0  0  0  0  0  0  0  0
    8.7998   -1.0229    0.0000 H   0  0  0  0  0  0  0  0  0  0  0  0
    8.7998    0.6429    0.0000 H   0  0  0  0  0  0  0  0  0  0  0  0
  1 11  2  0  0  0  0
  2  5  1  0  0  0  0
  2  8  1  0  0  0  0
  2 21  1  0  0  0  0
  3  8  1  0  0  0  0
  3  9  1  0  0  0  0
  3 22  1  0  0  0  0
  4  8  2  0  0  0  0
  4 11  1  0  0  0  0
  5  6  1  0  0  0  0
  5  7  1  0  0  0  0
  5 16  1  0  0  0  0
  6  7  1  0  0  0  0
  6 17  1  0  0  0  0
  6 18  1  0  0  0  0
  7 19  1  0  0  0  0
  7 20  1  0  0  0  0
  9 10  1  0  0  0  0
  9 12  2  0  0  0  0
 10 11  1  0  0  0  0
 10 13  2  0  0  0  0
 12 14  1  0  0  0  0
 12 23  1  0  0  0  0
 13 15  1  0  0  0  0
 13 24  1  0  0  0  0
 14 15  2  0  0  0  0
 14 25  1  0  0  0  0
 15 26  1  0  0  0  0
M  END
> <PUBCHEM_COMPOUND_CID>
24098540

> <PUBCHEM_COMPOUND_CANONICALIZED>
1

> <PUBCHEM_CACTVS_COMPLEXITY>
309

> <PUBCHEM_CACTVS_HBOND_ACCEPTOR>
1

> <PUBCHEM_CACTVS_HBOND_DONOR>
2

> <PUBCHEM_CACTVS_ROTATABLE_BOND>
2

> <PUBCHEM_CACTVS_SUBSKEYS>
AAADccBzIAAAAAAAAAAAAAAAGAAAAAAAAAAwQAAAAAAAAACBAAAAHgAQAAAADCjBmAQxwILAAACoAiVSdACCAAElAgAJiIEIZMiIIDrA3ZGEIYhokAJIyecYiACOAAAAAAACAAAAAAAAAAQAAAAAAAAAAA==

> <PUBCHEM_IUPAC_OPENEYE_NAME>
2-(cyclopropylamino)-1H-quinazolin-4-one

> <PUBCHEM_IUPAC_CAS_NAME>
2-(cyclopropylamino)-1H-quinazolin-4-one

> <PUBCHEM_IUPAC_NAME>
2-(cyclopropylamino)-1H-quinazolin-4-one

> <PUBCHEM_IUPAC_SYSTEMATIC_NAME>
2-(cyclopropylamino)-1H-quinazolin-4-one

> <PUBCHEM_IUPAC_TRADITIONAL_NAME>
2-(cyclopropylamino)-1H-quinazolin-4-one

> <PUBCHEM_IUPAC_INCHI>
InChI=1S/C11H11N3O/c15-10-8-3-1-2-4-9(8)13-11(14-10)12-7-5-6-7/h1-4,7H,5-6H2,(H2,12,13,14,15)

> <PUBCHEM_IUPAC_INCHIKEY>
DEZGOBMGXPFLQV-UHFFFAOYSA-N

> <PUBCHEM_XLOGP3>
1.6

> <PUBCHEM_EXACT_MASS>
201.090212

> <PUBCHEM_MOLECULAR_FORMULA>
C11H11N3O

> <PUBCHEM_MOLECULAR_WEIGHT>
201.22454

> <PUBCHEM_OPENEYE_CAN_SMILES>
C1CC1NC2=NC(=O)C3=CC=CC=C3N2

> <PUBCHEM_OPENEYE_ISO_SMILES>
C1CC1NC2=NC(=O)C3=CC=CC=C3N2

> <PUBCHEM_CACTVS_TPSA>
53.5

> <PUBCHEM_MONOISOTOPIC_WEIGHT>
201.090212

> <PUBCHEM_TOTAL_CHARGE>
0

> <PUBCHEM_HEAVY_ATOM_COUNT>
15

> <PUBCHEM_ATOM_DEF_STEREO_COUNT>
0

> <PUBCHEM_ATOM_UDEF_STEREO_COUNT>
0

> <PUBCHEM_BOND_DEF_STEREO_COUNT>
0

> <PUBCHEM_BOND_UDEF_STEREO_COUNT>
0

> <PUBCHEM_ISOTOPIC_ATOM_COUNT>
0

> <PUBCHEM_COMPONENT_COUNT>
1

> <PUBCHEM_CACTVS_TAUTO_COUNT>
12

> <PUBCHEM_COORDINATE_TYPE>
1
5
255

> <PUBCHEM_BONDANNOTATIONS>
10  11  8
10  13  8
12  14  8
13  15  8
14  15  8
3  8  8
3  9  8
4  11  8
4  8  8
9  10  8
9  12  8

$$$$
