30326222
  -OEChem-12041211412D

 42 44  0     0  0  0  0  0  0999 V2000
    3.5000    0.4989    0.0000 N   0  3  0  0  0  0  0  0  0  0  0  0
    5.2320   -0.5011    0.0000 N   0  0  0  0  0  0  0  0  0  0  0  0
    3.5000   -0.5011    0.0000 C   0  0  0  0  0  0  0  0  0  0  0  0
    4.3660    0.9989    0.0000 C   0  0  0  0  0  0  0  0  0  0  0  0
    4.3660   -1.0011    0.0000 C   0  0  0  0  0  0  0  0  0  0  0  0
    5.2320    0.4989    0.0000 C   0  0  0  0  0  0  0  0  0  0  0  0
    2.5000    0.4989    0.0000 C   0  0  0  0  0  0  0  0  0  0  0  0
    6.0981   -1.0011    0.0000 C   0  0  0  0  0  0  0  0  0  0  0  0
    2.0000   -0.3672    0.0000 C   0  0  0  0  0  0  0  0  0  0  0  0
    6.9641   -0.5011    0.0000 C   0  0  0  0  0  0  0  0  0  0  0  0
    7.8301   -1.0011    0.0000 C   0  0  0  0  0  0  0  0  0  0  0  0
    6.9641    0.4989    0.0000 C   0  0  0  0  0  0  0  0  0  0  0  0
    8.6962   -0.5011    0.0000 C   0  0  0  0  0  0  0  0  0  0  0  0
    8.6962    0.4989    0.0000 C   0  0  0  0  0  0  0  0  0  0  0  0
    7.8301    0.9989    0.0000 C   0  0  0  0  0  0  0  0  0  0  0  0
    9.5901   -1.0358    0.0000 C   0  0  0  0  0  0  0  0  0  0  0  0
    9.5901    1.0335    0.0000 C   0  0  0  0  0  0  0  0  0  0  0  0
   10.4962   -0.5220    0.0000 C   0  0  0  0  0  0  0  0  0  0  0  0
   10.4962    0.5197    0.0000 C   0  0  0  0  0  0  0  0  0  0  0  0
    3.1900    1.0358    0.0000 H   0  0  0  0  0  0  0  0  0  0  0  0
    4.7646    1.4738    0.0000 H   0  0  0  0  0  0  0  0  0  0  0  0
    3.9675    1.4738    0.0000 H   0  0  0  0  0  0  0  0  0  0  0  0
    2.8894   -0.3935    0.0000 H   0  0  0  0  0  0  0  0  0  0  0  0
    3.2880   -1.0838    0.0000 H   0  0  0  0  0  0  0  0  0  0  0  0
    3.9675   -1.4761    0.0000 H   0  0  0  0  0  0  0  0  0  0  0  0
    4.7646   -1.4761    0.0000 H   0  0  0  0  0  0  0  0  0  0  0  0
    5.8426    0.3912    0.0000 H   0  0  0  0  0  0  0  0  0  0  0  0
    5.4441    1.0815    0.0000 H   0  0  0  0  0  0  0  0  0  0  0  0
    2.6077    1.1094    0.0000 H   0  0  0  0  0  0  0  0  0  0  0  0
    1.9174    0.7109    0.0000 H   0  0  0  0  0  0  0  0  0  0  0  0
    5.6996   -1.4761    0.0000 H   0  0  0  0  0  0  0  0  0  0  0  0
    6.4966   -1.4761    0.0000 H   0  0  0  0  0  0  0  0  0  0  0  0
    1.4631   -0.0572    0.0000 H   0  0  0  0  0  0  0  0  0  0  0  0
    1.6900   -0.9041    0.0000 H   0  0  0  0  0  0  0  0  0  0  0  0
    2.5369   -0.6772    0.0000 H   0  0  0  0  0  0  0  0  0  0  0  0
    7.8301   -1.6211    0.0000 H   0  0  0  0  0  0  0  0  0  0  0  0
    6.4272    0.8089    0.0000 H   0  0  0  0  0  0  0  0  0  0  0  0
    7.8301    1.6189    0.0000 H   0  0  0  0  0  0  0  0  0  0  0  0
    9.5829   -1.6558    0.0000 H   0  0  0  0  0  0  0  0  0  0  0  0
    9.5829    1.6535    0.0000 H   0  0  0  0  0  0  0  0  0  0  0  0
   11.0319   -0.8340    0.0000 H   0  0  0  0  0  0  0  0  0  0  0  0
   11.0319    0.8317    0.0000 H   0  0  0  0  0  0  0  0  0  0  0  0
  1  3  1  0  0  0  0
  1  4  1  0  0  0  0
  1  7  1  0  0  0  0
  1 20  1  0  0  0  0
  2  5  1  0  0  0  0
  2  6  1  0  0  0  0
  2  8  1  0  0  0  0
  3  5  1  0  0  0  0
  3 23  1  0  0  0  0
  3 24  1  0  0  0  0
  4  6  1  0  0  0  0
  4 21  1  0  0  0  0
  4 22  1  0  0  0  0
  5 25  1  0  0  0  0
  5 26  1  0  0  0  0
  6 27  1  0  0  0  0
  6 28  1  0  0  0  0
  7  9  1  0  0  0  0
  7 29  1  0  0  0  0
  7 30  1  0  0  0  0
  8 10  1  0  0  0  0
  8 31  1  0  0  0  0
  8 32  1  0  0  0  0
  9 33  1  0  0  0  0
  9 34  1  0  0  0  0
  9 35  1  0  0  0  0
 10 11  2  0  0  0  0
 10 12  1  0  0  0  0
 11 13  1  0  0  0  0
 11 36  1  0  0  0  0
 12 15  2  0  0  0  0
 12 37  1  0  0  0  0
 13 14  1  0  0  0  0
 13 16  2  0  0  0  0
 14 15  1  0  0  0  0
 14 17  2  0  0  0  0
 15 38  1  0  0  0  0
 16 18  1  0  0  0  0
 16 39  1  0  0  0  0
 17 19  1  0  0  0  0
 17 40  1  0  0  0  0
 18 19  2  0  0  0  0
 18 41  1  0  0  0  0
 19 42  1  0  0  0  0
M  CHG  1   1   1
M  END
> <PUBCHEM_COMPOUND_CID>
30326222

> <PUBCHEM_COMPOUND_CANONICALIZED>
1

> <PUBCHEM_CACTVS_COMPLEXITY>
270

> <PUBCHEM_CACTVS_HBOND_ACCEPTOR>
1

> <PUBCHEM_CACTVS_HBOND_DONOR>
1

> <PUBCHEM_CACTVS_ROTATABLE_BOND>
3

> <PUBCHEM_CACTVS_SUBSKEYS>
AAADceB7AAAAAAAAAAAAAAAAAAAAAAAAAAA8YIAAAAAAAADBUAAAHAAQAAAADADBGAQyAMPAAACAAiBCAACCAAAgAAAIiIAIBIgIYCKAkRGUIAhgkACIiAcQgMAOwAACAAAQAACAAAQAACAAAAAAAAAAAA==

> <PUBCHEM_IUPAC_OPENEYE_NAME>
1-ethyl-4-(2-naphthylmethyl)piperazin-1-ium

> <PUBCHEM_IUPAC_CAS_NAME>
1-ethyl-4-(2-naphthalenylmethyl)piperazin-1-ium

> <PUBCHEM_IUPAC_NAME>
1-ethyl-4-(naphthalen-2-ylmethyl)piperazin-1-ium

> <PUBCHEM_IUPAC_SYSTEMATIC_NAME>
1-ethyl-4-(naphthalen-2-ylmethyl)piperazin-1-ium

> <PUBCHEM_IUPAC_TRADITIONAL_NAME>
1-ethyl-4-(2-naphthylmethyl)piperazin-1-ium

> <PUBCHEM_IUPAC_INCHI>
InChI=1S/C17H22N2/c1-2-18-9-11-19(12-10-18)14-15-7-8-16-5-3-4-6-17(16)13-15/h3-8,13H,2,9-12,14H2,1H3/p+1

> <PUBCHEM_IUPAC_INCHIKEY>
TYUHWYRAPCQNEW-UHFFFAOYSA-O

> <PUBCHEM_XLOGP3>
3.1

> <PUBCHEM_EXACT_MASS>
255.186124

> <PUBCHEM_MOLECULAR_FORMULA>
C17H23N2+

> <PUBCHEM_MOLECULAR_WEIGHT>
255.37792

> <PUBCHEM_OPENEYE_CAN_SMILES>
CC[NH+]1CCN(CC1)CC2=CC3=CC=CC=C3C=C2

> <PUBCHEM_OPENEYE_ISO_SMILES>
CC[NH+]1CCN(CC1)CC2=CC3=CC=CC=C3C=C2

> <PUBCHEM_CACTVS_TPSA>
7.7

> <PUBCHEM_MONOISOTOPIC_WEIGHT>
255.186124

> <PUBCHEM_TOTAL_CHARGE>
1

> <PUBCHEM_HEAVY_ATOM_COUNT>
19

> <PUBCHEM_ATOM_DEF_STEREO_COUNT>
0

> <PUBCHEM_ATOM_UDEF_STEREO_COUNT>
0

> <PUBCHEM_BOND_DEF_STEREO_COUNT>
0

> <PUBCHEM_BOND_UDEF_STEREO_COUNT>
0

> <PUBCHEM_ISOTOPIC_ATOM_COUNT>
0

> <PUBCHEM_COMPONENT_COUNT>
1

> <PUBCHEM_CACTVS_TAUTO_COUNT>
1

> <PUBCHEM_COORDINATE_TYPE>
1
5
255

> <PUBCHEM_BONDANNOTATIONS>
10  11  8
10  12  8
11  13  8
12  15  8
13  14  8
13  16  8
14  15  8
14  17  8
16  18  8
17  19  8
18  19  8

$$$$
30326731
  -OEChem-12041211412D

 43 45  0     0  0  0  0  0  0999 V2000
    9.2136    2.0902    0.0000 N   0  3  0  0  0  0  0  0  0  0  0  0
    7.2566    1.6778    0.0000 N   0  0  0  0  0  0  0  0  0  0  0  0
    4.6783   -2.2452    0.0000 N   0  0  0  0  0  0  0  0  0  0  0  0
    8.5458    2.8345    0.0000 C   0  0  0  0  0  0  0  0  0  0  0  0
    8.9030    1.1397    0.0000 C   0  0  0  0  0  0  0  0  0  0  0  0
    7.5673    2.6283    0.0000 C   0  0  0  0  0  0  0  0  0  0  0  0
    7.9244    0.9335    0.0000 C   0  0  0  0  0  0  0  0  0  0  0  0
    6.2781    1.4715    0.0000 C   0  0  0  0  0  0  0  0  0  0  0  0
    9.9579    2.7580    0.0000 C   0  0  0  0  0  0  0  0  0  0  0  0
    5.9674    0.5210    0.0000 C   0  0  0  0  0  0  0  0  0  0  0  0
    4.9889    0.3148    0.0000 C   0  0  0  0  0  0  0  0  0  0  0  0
    4.6783   -0.6357    0.0000 C   0  0  0  0  0  0  0  0  0  0  0  0
    3.7320   -0.9404    0.0000 C   0  0  0  0  0  0  0  0  0  0  0  0
    5.2619   -1.4404    0.0000 C   0  0  0  0  0  0  0  0  0  0  0  0
    3.7320   -1.9404    0.0000 C   0  0  0  0  0  0  0  0  0  0  0  0
    2.8660   -0.4404    0.0000 C   0  0  0  0  0  0  0  0  0  0  0  0
    2.8660   -2.4404    0.0000 C   0  0  0  0  0  0  0  0  0  0  0  0
    2.0000   -0.9404    0.0000 C   0  0  0  0  0  0  0  0  0  0  0  0
    2.0000   -1.9404    0.0000 C   0  0  0  0  0  0  0  0  0  0  0  0
    9.8029    1.8976    0.0000 H   0  0  0  0  0  0  0  0  0  0  0  0
    9.0721    3.1621    0.0000 H   0  0  0  0  0  0  0  0  0  0  0  0
    8.9235    0.5200    0.0000 H   0  0  0  0  0  0  0  0  0  0  0  0
    9.5168    1.0523    0.0000 H   0  0  0  0  0  0  0  0  0  0  0  0
    8.3145    3.4098    0.0000 H   0  0  0  0  0  0  0  0  0  0  0  0
    7.5467    3.2479    0.0000 H   0  0  0  0  0  0  0  0  0  0  0  0
    6.9534    2.7156    0.0000 H   0  0  0  0  0  0  0  0  0  0  0  0
    7.3981    0.6058    0.0000 H   0  0  0  0  0  0  0  0  0  0  0  0
    8.1557    0.3582    0.0000 H   0  0  0  0  0  0  0  0  0  0  0  0
    6.2575    2.0912    0.0000 H   0  0  0  0  0  0  0  0  0  0  0  0
    5.6643    1.5589    0.0000 H   0  0  0  0  0  0  0  0  0  0  0  0
   10.3720    2.2966    0.0000 H   0  0  0  0  0  0  0  0  0  0  0  0
   10.4194    3.1721    0.0000 H   0  0  0  0  0  0  0  0  0  0  0  0
    9.5439    3.2195    0.0000 H   0  0  0  0  0  0  0  0  0  0  0  0
    5.9880   -0.0986    0.0000 H   0  0  0  0  0  0  0  0  0  0  0  0
    6.5812    0.4337    0.0000 H   0  0  0  0  0  0  0  0  0  0  0  0
    4.9684    0.9345    0.0000 H   0  0  0  0  0  0  0  0  0  0  0  0
    4.3751    0.4022    0.0000 H   0  0  0  0  0  0  0  0  0  0  0  0
    5.8819   -1.4404    0.0000 H   0  0  0  0  0  0  0  0  0  0  0  0
    4.8709   -2.8345    0.0000 H   0  0  0  0  0  0  0  0  0  0  0  0
    2.8660    0.1796    0.0000 H   0  0  0  0  0  0  0  0  0  0  0  0
    2.8660   -3.0604    0.0000 H   0  0  0  0  0  0  0  0  0  0  0  0
    1.4631   -0.6304    0.0000 H   0  0  0  0  0  0  0  0  0  0  0  0
    1.4631   -2.2504    0.0000 H   0  0  0  0  0  0  0  0  0  0  0  0
  1  4  1  0  0  0  0
  1  5  1  0  0  0  0
  1  9  1  0  0  0  0
  1 20  1  0  0  0  0
  2  6  1  0  0  0  0
  2  7  1  0  0  0  0
  2  8  1  0  0  0  0
  3 14  1  0  0  0  0
  3 15  1  0  0  0  0
  3 39  1  0  0  0  0
  4  6  1  0  0  0  0
  4 21  1  0  0  0  0
  4 24  1  0  0  0  0
  5  7  1  0  0  0  0
  5 22  1  0  0  0  0
  5 23  1  0  0  0  0
  6 25  1  0  0  0  0
  6 26  1  0  0  0  0
  7 27  1  0  0  0  0
  7 28  1  0  0  0  0
  8 10  1  0  0  0  0
  8 29  1  0  0  0  0
  8 30  1  0  0  0  0
  9 31  1  0  0  0  0
  9 32  1  0  0  0  0
  9 33  1  0  0  0  0
 10 11  1  0  0  0  0
 10 34  1  0  0  0  0
 10 35  1  0  0  0  0
 11 12  1  0  0  0  0
 11 36  1  0  0  0  0
 11 37  1  0  0  0  0
 12 13  1  0  0  0  0
 12 14  2  0  0  0  0
 13 15  1  0  0  0  0
 13 16  2  0  0  0  0
 14 38  1  0  0  0  0
 15 17  2  0  0  0  0
 16 18  1  0  0  0  0
 16 40  1  0  0  0  0
 17 19  1  0  0  0  0
 17 41  1  0  0  0  0
 18 19  2  0  0  0  0
 18 42  1  0  0  0  0
 19 43  1  0  0  0  0
M  CHG  1   1   1
M  END
> <PUBCHEM_COMPOUND_CID>
30326731

> <PUBCHEM_COMPOUND_CANONICALIZED>
1

> <PUBCHEM_CACTVS_COMPLEXITY>
273

> <PUBCHEM_CACTVS_HBOND_ACCEPTOR>
1

> <PUBCHEM_CACTVS_HBOND_DONOR>
2

> <PUBCHEM_CACTVS_ROTATABLE_BOND>
4

> <PUBCHEM_CACTVS_SUBSKEYS>
AAADceB7AAAAAAAAAAAAAAAAAAAAAWAAAAA8QAAAAAAAAFgB8AAAHAAQAAAADAjBHgQ+wPPJkACgAzRnRACCgCAxAiAI2aA4ZJgIYOLAkZGUIAhgkADIyAcQgMAOgAAAAAACAAAAAAAAAAQAAAAAAAAAAA==

> <PUBCHEM_IUPAC_OPENEYE_NAME>
3-[3-(4-methylpiperazin-4-ium-1-yl)propyl]-1H-indole

> <PUBCHEM_IUPAC_CAS_NAME>
3-[3-(4-methyl-1-piperazin-4-iumyl)propyl]-1H-indole

> <PUBCHEM_IUPAC_NAME>
3-[3-(4-methylpiperazin-4-ium-1-yl)propyl]-1H-indole

> <PUBCHEM_IUPAC_SYSTEMATIC_NAME>
3-[3-(4-methylpiperazin-4-ium-1-yl)propyl]-1H-indole

> <PUBCHEM_IUPAC_TRADITIONAL_NAME>
3-[3-(4-methylpiperazin-4-ium-1-yl)propyl]-1H-indole

> <PUBCHEM_IUPAC_INCHI>
InChI=1S/C16H23N3/c1-18-9-11-19(12-10-18)8-4-5-14-13-17-16-7-3-2-6-15(14)16/h2-3,6-7,13,17H,4-5,8-12H2,1H3/p+1

> <PUBCHEM_IUPAC_INCHIKEY>
ZYIYXGKNZGCFHX-UHFFFAOYSA-O

> <PUBCHEM_XLOGP3>
2.7

> <PUBCHEM_EXACT_MASS>
258.197023

> <PUBCHEM_MOLECULAR_FORMULA>
C16H24N3+

> <PUBCHEM_MOLECULAR_WEIGHT>
258.38186

> <PUBCHEM_OPENEYE_CAN_SMILES>
C[NH+]1CCN(CC1)CCCC2=CNC3=CC=CC=C32

> <PUBCHEM_OPENEYE_ISO_SMILES>
C[NH+]1CCN(CC1)CCCC2=CNC3=CC=CC=C32

> <PUBCHEM_CACTVS_TPSA>
23.5

> <PUBCHEM_MONOISOTOPIC_WEIGHT>
258.197023

> <PUBCHEM_TOTAL_CHARGE>
1

> <PUBCHEM_HEAVY_ATOM_COUNT>
19

> <PUBCHEM_ATOM_DEF_STEREO_COUNT>
0

> <PUBCHEM_ATOM_UDEF_STEREO_COUNT>
0

> <PUBCHEM_BOND_DEF_STEREO_COUNT>
0

> <PUBCHEM_BOND_UDEF_STEREO_COUNT>
0

> <PUBCHEM_ISOTOPIC_ATOM_COUNT>
0

> <PUBCHEM_COMPONENT_COUNT>
1

> <PUBCHEM_CACTVS_TAUTO_COUNT>
1

> <PUBCHEM_COORDINATE_TYPE>
1
5
255

> <PUBCHEM_BONDANNOTATIONS>
12  13  8
12  14  8
13  15  8
13  16  8
15  17  8
16  18  8
17  19  8
18  19  8
3  14  8
3  15  8

$$$$
30326736
  -OEChem-12041211412D

 53 56  0     0  0  0  0  0  0999 V2000
    7.2566    1.5650    0.0000 N   0  3  0  0  0  0  0  0  0  0  0  0
    9.1576    0.9437    0.0000 N   0  0  0  0  0  0  0  0  0  0  0  0
    4.6783   -2.3579    0.0000 N   0  0  0  0  0  0  0  0  0  0  0  0
    7.4628    0.5865    0.0000 C   0  0  0  0  0  0  0  0  0  0  0  0
    8.0009    2.2329    0.0000 C   0  0  0  0  0  0  0  0  0  0  0  0
    6.2781    1.3588    0.0000 C   0  0  0  0  0  0  0  0  0  0  0  0
    8.4134    0.2759    0.0000 C   0  0  0  0  0  0  0  0  0  0  0  0
    8.9514    1.9222    0.0000 C   0  0  0  0  0  0  0  0  0  0  0  0
    5.9674    0.4083    0.0000 C   0  0  0  0  0  0  0  0  0  0  0  0
   10.1082    0.6330    0.0000 C   0  0  0  0  0  0  0  0  0  0  0  0
    4.9889    0.2021    0.0000 C   0  0  0  0  0  0  0  0  0  0  0  0
    4.6783   -0.7484    0.0000 C   0  0  0  0  0  0  0  0  0  0  0  0
   10.8525    1.3009    0.0000 C   0  0  0  0  0  0  0  0  0  0  0  0
    3.7320   -1.0532    0.0000 C   0  0  0  0  0  0  0  0  0  0  0  0
    5.2619   -1.5532    0.0000 C   0  0  0  0  0  0  0  0  0  0  0  0
    3.7320   -2.0532    0.0000 C   0  0  0  0  0  0  0  0  0  0  0  0
   10.6463    2.2794    0.0000 C   0  0  0  0  0  0  0  0  0  0  0  0
   11.8030    0.9902    0.0000 C   0  0  0  0  0  0  0  0  0  0  0  0
    2.8660   -0.5532    0.0000 C   0  0  0  0  0  0  0  0  0  0  0  0
    2.8660   -2.5532    0.0000 C   0  0  0  0  0  0  0  0  0  0  0  0
   11.3906    2.9472    0.0000 C   0  0  0  0  0  0  0  0  0  0  0  0
   12.5473    1.6581    0.0000 C   0  0  0  0  0  0  0  0  0  0  0  0
    2.0000   -1.0532    0.0000 C   0  0  0  0  0  0  0  0  0  0  0  0
   12.3411    2.6366    0.0000 C   0  0  0  0  0  0  0  0  0  0  0  0
    2.0000   -2.0532    0.0000 C   0  0  0  0  0  0  0  0  0  0  0  0
    6.5888    2.3093    0.0000 H   0  0  0  0  0  0  0  0  0  0  0  0
    8.2929    2.7798    0.0000 H   0  0  0  0  0  0  0  0  0  0  0  0
    7.5130    2.6154    0.0000 H   0  0  0  0  0  0  0  0  0  0  0  0
    6.8432    0.5660    0.0000 H   0  0  0  0  0  0  0  0  0  0  0  0
    7.3755   -0.0273    0.0000 H   0  0  0  0  0  0  0  0  0  0  0  0
    6.2575    1.9785    0.0000 H   0  0  0  0  0  0  0  0  0  0  0  0
    5.6643    1.4462    0.0000 H   0  0  0  0  0  0  0  0  0  0  0  0
    8.1213   -0.2711    0.0000 H   0  0  0  0  0  0  0  0  0  0  0  0
    8.9012   -0.1067    0.0000 H   0  0  0  0  0  0  0  0  0  0  0  0
    9.5711    1.9428    0.0000 H   0  0  0  0  0  0  0  0  0  0  0  0
    9.0388    2.5360    0.0000 H   0  0  0  0  0  0  0  0  0  0  0  0
    5.9880   -0.2114    0.0000 H   0  0  0  0  0  0  0  0  0  0  0  0
    6.5812    0.3209    0.0000 H   0  0  0  0  0  0  0  0  0  0  0  0
    9.8162    0.0861    0.0000 H   0  0  0  0  0  0  0  0  0  0  0  0
   10.5961    0.2505    0.0000 H   0  0  0  0  0  0  0  0  0  0  0  0
    4.9684    0.8217    0.0000 H   0  0  0  0  0  0  0  0  0  0  0  0
    4.3751    0.2894    0.0000 H   0  0  0  0  0  0  0  0  0  0  0  0
    5.8819   -1.5532    0.0000 H   0  0  0  0  0  0  0  0  0  0  0  0
   10.0569    2.4720    0.0000 H   0  0  0  0  0  0  0  0  0  0  0  0
   11.9308    0.3836    0.0000 H   0  0  0  0  0  0  0  0  0  0  0  0
    4.8709   -2.9472    0.0000 H   0  0  0  0  0  0  0  0  0  0  0  0
    2.8660    0.0668    0.0000 H   0  0  0  0  0  0  0  0  0  0  0  0
    2.8660   -3.1732    0.0000 H   0  0  0  0  0  0  0  0  0  0  0  0
   11.2627    3.5539    0.0000 H   0  0  0  0  0  0  0  0  0  0  0  0
   13.1366    1.4655    0.0000 H   0  0  0  0  0  0  0  0  0  0  0  0
    1.4631   -0.7432    0.0000 H   0  0  0  0  0  0  0  0  0  0  0  0
   12.8025    3.0506    0.0000 H   0  0  0  0  0  0  0  0  0  0  0  0
    1.4631   -2.3632    0.0000 H   0  0  0  0  0  0  0  0  0  0  0  0
  1  4  1  0  0  0  0
  1  5  1  0  0  0  0
  1  6  1  0  0  0  0
  1 26  1  0  0  0  0
  2  7  1  0  0  0  0
  2  8  1  0  0  0  0
  2 10  1  0  0  0  0
  3 15  1  0  0  0  0
  3 16  1  0  0  0  0
  3 46  1  0  0  0  0
  4  7  1  0  0  0  0
  4 29  1  0  0  0  0
  4 30  1  0  0  0  0
  5  8  1  0  0  0  0
  5 27  1  0  0  0  0
  5 28  1  0  0  0  0
  6  9  1  0  0  0  0
  6 31  1  0  0  0  0
  6 32  1  0  0  0  0
  7 33  1  0  0  0  0
  7 34  1  0  0  0  0
  8 35  1  0  0  0  0
  8 36  1  0  0  0  0
  9 11  1  0  0  0  0
  9 37  1  0  0  0  0
  9 38  1  0  0  0  0
 10 13  1  0  0  0  0
 10 39  1  0  0  0  0
 10 40  1  0  0  0  0
 11 12  1  0  0  0  0
 11 41  1  0  0  0  0
 11 42  1  0  0  0  0
 12 14  1  0  0  0  0
 12 15  2  0  0  0  0
 13 17  2  0  0  0  0
 13 18  1  0  0  0  0
 14 16  1  0  0  0  0
 14 19  2  0  0  0  0
 15 43  1  0  0  0  0
 16 20  2  0  0  0  0
 17 21  1  0  0  0  0
 17 44  1  0  0  0  0
 18 22  2  0  0  0  0
 18 45  1  0  0  0  0
 19 23  1  0  0  0  0
 19 47  1  0  0  0  0
 20 25  1  0  0  0  0
 20 48  1  0  0  0  0
 21 24  2  0  0  0  0
 21 49  1  0  0  0  0
 22 24  1  0  0  0  0
 22 50  1  0  0  0  0
 23 25  2  0  0  0  0
 23 51  1  0  0  0  0
 24 52  1  0  0  0  0
 25 53  1  0  0  0  0
M  CHG  1   1   1
M  END
> <PUBCHEM_COMPOUND_CID>
30326736

> <PUBCHEM_COMPOUND_CANONICALIZED>
1

> <PUBCHEM_CACTVS_COMPLEXITY>
385

> <PUBCHEM_CACTVS_HBOND_ACCEPTOR>
1

> <PUBCHEM_CACTVS_HBOND_DONOR>
2

> <PUBCHEM_CACTVS_ROTATABLE_BOND>
6

> <PUBCHEM_CACTVS_SUBSKEYS>
AAADceB7AAAAAAAAAAAAAAAAAAAAAWAAAAA8YIAAAAAAAFgB9AAAHAAQAAAADAjBHgQ8wPPJkACgAzRnRACCgCAxAiAI2aA4ZJgIYOLAkZGUIAhgkADIyAcQgMAOgAAAAAACAAAAAAAAAAQAAAAAAAAAAA==

> <PUBCHEM_IUPAC_OPENEYE_NAME>
3-[3-(4-benzylpiperazin-1-ium-1-yl)propyl]-1H-indole

> <PUBCHEM_IUPAC_CAS_NAME>
3-[3-[4-(phenylmethyl)-1-piperazin-1-iumyl]propyl]-1H-indole

> <PUBCHEM_IUPAC_NAME>
3-[3-(4-benzylpiperazin-1-ium-1-yl)propyl]-1H-indole

> <PUBCHEM_IUPAC_SYSTEMATIC_NAME>
3-[3-[4-(phenylmethyl)piperazin-1-ium-1-yl]propyl]-1H-indole

> <PUBCHEM_IUPAC_TRADITIONAL_NAME>
3-[3-(4-benzylpiperazin-1-ium-1-yl)propyl]-1H-indole

> <PUBCHEM_IUPAC_INCHI>
InChI=1S/C22H27N3/c1-2-7-19(8-3-1)18-25-15-13-24(14-16-25)12-6-9-20-17-23-22-11-5-4-10-21(20)22/h1-5,7-8,10-11,17,23H,6,9,12-16,18H2/p+1

> <PUBCHEM_IUPAC_INCHIKEY>
BUTXFZSOKHLWFQ-UHFFFAOYSA-O

> <PUBCHEM_XLOGP3>
4.1

> <PUBCHEM_EXACT_MASS>
334.228323

> <PUBCHEM_MOLECULAR_FORMULA>
C22H28N3+

> <PUBCHEM_MOLECULAR_WEIGHT>
334.47782

> <PUBCHEM_OPENEYE_CAN_SMILES>
C1CN(CC[NH+]1CCCC2=CNC3=CC=CC=C32)CC4=CC=CC=C4

> <PUBCHEM_OPENEYE_ISO_SMILES>
C1CN(CC[NH+]1CCCC2=CNC3=CC=CC=C32)CC4=CC=CC=C4

> <PUBCHEM_CACTVS_TPSA>
23.5

> <PUBCHEM_MONOISOTOPIC_WEIGHT>
334.228323

> <PUBCHEM_TOTAL_CHARGE>
1

> <PUBCHEM_HEAVY_ATOM_COUNT>
25

> <PUBCHEM_ATOM_DEF_STEREO_COUNT>
0

> <PUBCHEM_ATOM_UDEF_STEREO_COUNT>
0

> <PUBCHEM_BOND_DEF_STEREO_COUNT>
0

> <PUBCHEM_BOND_UDEF_STEREO_COUNT>
0

> <PUBCHEM_ISOTOPIC_ATOM_COUNT>
0

> <PUBCHEM_COMPONENT_COUNT>
1

> <PUBCHEM_CACTVS_TAUTO_COUNT>
1

> <PUBCHEM_COORDINATE_TYPE>
1
5
255

> <PUBCHEM_BONDANNOTATIONS>
12  14  8
12  15  8
13  17  8
13  18  8
14  16  8
14  19  8
16  20  8
17  21  8
18  22  8
19  23  8
20  25  8
21  24  8
22  24  8
23  25  8
3  15  8
3  16  8

$$$$
30326951
  -OEChem-12041211412D

 39 40  0     1  0  0  0  0  0999 V2000
    7.5673    2.2561    0.0000 N   0  3  0  0  0  0  0  0  0  0  0  0
    5.9674    0.1489    0.0000 N   0  0  3  0  0  0  0  0  0  0  0  0
    4.6783   -2.6173    0.0000 N   0  0  0  0  0  0  0  0  0  0  0  0
    7.2566    1.3056    0.0000 C   0  0  0  0  0  0  0  0  0  0  0  0
    6.2781    1.0994    0.0000 C   0  0  0  0  0  0  0  0  0  0  0  0
    4.9889   -0.0573    0.0000 C   0  0  0  0  0  0  0  0  0  0  0  0
    4.6783   -1.0079    0.0000 C   0  0  0  0  0  0  0  0  0  0  0  0
    3.7320   -1.3126    0.0000 C   0  0  0  0  0  0  0  0  0  0  0  0
    7.8779    3.2066    0.0000 C   0  0  0  0  0  0  0  0  0  0  0  0
    8.5178    1.9455    0.0000 C   0  0  0  0  0  0  0  0  0  0  0  0
    6.6353   -0.5954    0.0000 C   0  0  0  0  0  0  0  0  0  0  0  0
    3.7320   -2.3126    0.0000 C   0  0  0  0  0  0  0  0  0  0  0  0
    5.2619   -1.8126    0.0000 C   0  0  0  0  0  0  0  0  0  0  0  0
    2.8660   -0.8126    0.0000 C   0  0  0  0  0  0  0  0  0  0  0  0
    2.8660   -2.8126    0.0000 C   0  0  0  0  0  0  0  0  0  0  0  0
    2.0000   -1.3126    0.0000 C   0  0  0  0  0  0  0  0  0  0  0  0
    2.0000   -2.3126    0.0000 C   0  0  0  0  0  0  0  0  0  0  0  0
    7.2772    0.6860    0.0000 H   0  0  0  0  0  0  0  0  0  0  0  0
    7.8704    1.2183    0.0000 H   0  0  0  0  0  0  0  0  0  0  0  0
    6.2575    1.7190    0.0000 H   0  0  0  0  0  0  0  0  0  0  0  0
    5.6643    1.1867    0.0000 H   0  0  0  0  0  0  0  0  0  0  0  0
    6.9780    2.4487    0.0000 H   0  0  0  0  0  0  0  0  0  0  0  0
    4.9684    0.5623    0.0000 H   0  0  0  0  0  0  0  0  0  0  0  0
    4.3751    0.0300    0.0000 H   0  0  0  0  0  0  0  0  0  0  0  0
    8.3252    1.3562    0.0000 H   0  0  0  0  0  0  0  0  0  0  0  0
    8.4672    3.0140    0.0000 H   0  0  0  0  0  0  0  0  0  0  0  0
    8.0705    3.7960    0.0000 H   0  0  0  0  0  0  0  0  0  0  0  0
    7.2886    3.3993    0.0000 H   0  0  0  0  0  0  0  0  0  0  0  0
    9.1071    1.7529    0.0000 H   0  0  0  0  0  0  0  0  0  0  0  0
    8.7104    2.5348    0.0000 H   0  0  0  0  0  0  0  0  0  0  0  0
    6.1738   -1.0095    0.0000 H   0  0  0  0  0  0  0  0  0  0  0  0
    7.0494   -1.0569    0.0000 H   0  0  0  0  0  0  0  0  0  0  0  0
    7.0968   -0.1814    0.0000 H   0  0  0  0  0  0  0  0  0  0  0  0
    5.8819   -1.8126    0.0000 H   0  0  0  0  0  0  0  0  0  0  0  0
    4.8709   -3.2066    0.0000 H   0  0  0  0  0  0  0  0  0  0  0  0
    2.8660   -0.1926    0.0000 H   0  0  0  0  0  0  0  0  0  0  0  0
    2.8660   -3.4326    0.0000 H   0  0  0  0  0  0  0  0  0  0  0  0
    1.4631   -1.0026    0.0000 H   0  0  0  0  0  0  0  0  0  0  0  0
    1.4631   -2.6226    0.0000 H   0  0  0  0  0  0  0  0  0  0  0  0
  1  4  1  0  0  0  0
  1  9  1  0  0  0  0
  1 10  1  0  0  0  0
  1 22  1  0  0  0  0
  2  5  1  0  0  0  0
  2  6  1  0  0  0  0
  2 11  1  0  0  0  0
  3 12  1  0  0  0  0
  3 13  1  0  0  0  0
  3 35  1  0  0  0  0
  4  5  1  0  0  0  0
  4 18  1  0  0  0  0
  4 19  1  0  0  0  0
  5 20  1  0  0  0  0
  5 21  1  0  0  0  0
  6  7  1  0  0  0  0
  6 23  1  0  0  0  0
  6 24  1  0  0  0  0
  7  8  1  0  0  0  0
  7 13  2  0  0  0  0
  8 12  1  0  0  0  0
  8 14  2  0  0  0  0
  9 26  1  0  0  0  0
  9 27  1  0  0  0  0
  9 28  1  0  0  0  0
 10 25  1  0  0  0  0
 10 29  1  0  0  0  0
 10 30  1  0  0  0  0
 11 31  1  0  0  0  0
 11 32  1  0  0  0  0
 11 33  1  0  0  0  0
 12 15  2  0  0  0  0
 13 34  1  0  0  0  0
 14 16  1  0  0  0  0
 14 36  1  0  0  0  0
 15 17  1  0  0  0  0
 15 37  1  0  0  0  0
 16 17  2  0  0  0  0
 16 38  1  0  0  0  0
 17 39  1  0  0  0  0
M  CHG  1   1   1
M  END
> <PUBCHEM_COMPOUND_CID>
30326951

> <PUBCHEM_COMPOUND_CANONICALIZED>
1

> <PUBCHEM_CACTVS_COMPLEXITY>
230

> <PUBCHEM_CACTVS_HBOND_ACCEPTOR>
1

> <PUBCHEM_CACTVS_HBOND_DONOR>
2

> <PUBCHEM_CACTVS_ROTATABLE_BOND>
5

> <PUBCHEM_CACTVS_SUBSKEYS>
AAADceBzAAAAAAAAAAAAAAAAAAAAAWAAAAAwAAAAAAAAAFgB8AAAHAAQAAAADAjBHgQ+wPPJkACgAzRnRACCgCAxAiAI2aA4ZJgIYOLA0ZGUIAhgkADIyAcQgMAOgAAAAAACAAAAAAAAAAQAAAAAAAAAAA==

> <PUBCHEM_IUPAC_OPENEYE_NAME>
2-[1H-indol-3-ylmethyl(methyl)amino]ethyl-dimethyl-ammonium

> <PUBCHEM_IUPAC_CAS_NAME>
2-[1H-indol-3-ylmethyl(methyl)amino]ethyl-dimethylammonium

> <PUBCHEM_IUPAC_NAME>
2-[1H-indol-3-ylmethyl(methyl)amino]ethyl-dimethylazanium

> <PUBCHEM_IUPAC_SYSTEMATIC_NAME>
2-[1H-indol-3-ylmethyl(methyl)amino]ethyl-dimethyl-azanium

> <PUBCHEM_IUPAC_TRADITIONAL_NAME>
2-[1H-indol-3-ylmethyl(methyl)amino]ethyl-dimethyl-ammonium

> <PUBCHEM_IUPAC_INCHI>
InChI=1S/C14H21N3/c1-16(2)8-9-17(3)11-12-10-15-14-7-5-4-6-13(12)14/h4-7,10,15H,8-9,11H2,1-3H3/p+1

> <PUBCHEM_IUPAC_INCHIKEY>
RVPAWXITXPKGBH-UHFFFAOYSA-O

> <PUBCHEM_XLOGP3>
1.8

> <PUBCHEM_EXACT_MASS>
232.181373

> <PUBCHEM_MOLECULAR_FORMULA>
C14H22N3+

> <PUBCHEM_MOLECULAR_WEIGHT>
232.34458

> <PUBCHEM_OPENEYE_CAN_SMILES>
C[NH+](C)CCN(C)CC1=CNC2=CC=CC=C21

> <PUBCHEM_OPENEYE_ISO_SMILES>
C[NH+](C)CCN(C)CC1=CNC2=CC=CC=C21

> <PUBCHEM_CACTVS_TPSA>
23.5

> <PUBCHEM_MONOISOTOPIC_WEIGHT>
232.181373

> <PUBCHEM_TOTAL_CHARGE>
1

> <PUBCHEM_HEAVY_ATOM_COUNT>
17

> <PUBCHEM_ATOM_DEF_STEREO_COUNT>
0

> <PUBCHEM_ATOM_UDEF_STEREO_COUNT>
0

> <PUBCHEM_BOND_DEF_STEREO_COUNT>
0

> <PUBCHEM_BOND_UDEF_STEREO_COUNT>
0

> <PUBCHEM_ISOTOPIC_ATOM_COUNT>
0

> <PUBCHEM_COMPONENT_COUNT>
1

> <PUBCHEM_CACTVS_TAUTO_COUNT>
1

> <PUBCHEM_COORDINATE_TYPE>
1
5
255

> <PUBCHEM_BONDANNOTATIONS>
12  15  8
14  16  8
15  17  8
16  17  8
3  12  8
3  13  8
7  13  8
7  8  8
8  12  8
8  14  8

$$$$
30342060
  -OEChem-12041211412D

 31 32  0     0  0  0  0  0  0999 V2000
    2.0000   -3.7500    0.0000 I   0  0  0  0  0  0  0  0  0  0  0  0
    2.8660   -0.2500    0.0000 O   0  0  0  0  0  0  0  0  0  0  0  0
    4.5981   -0.2500    0.0000 N   0  0  0  0  0  0  0  0  0  0  0  0
    3.7320   -1.7500    0.0000 C   0  0  0  0  0  0  0  0  0  0  0  0
    3.7320   -0.7500    0.0000 C   0  0  0  0  0  0  0  0  0  0  0  0
    2.8660   -2.2500    0.0000 C   0  0  0  0  0  0  0  0  0  0  0  0
    4.5981   -2.2500    0.0000 C   0  0  0  0  0  0  0  0  0  0  0  0
    4.5981    0.7500    0.0000 C   0  0  0  0  0  0  0  0  0  0  0  0
    2.8660   -3.2500    0.0000 C   0  0  0  0  0  0  0  0  0  0  0  0
    4.5981   -3.2500    0.0000 C   0  0  0  0  0  0  0  0  0  0  0  0
    3.7320   -3.7500    0.0000 C   0  0  0  0  0  0  0  0  0  0  0  0
    7.1962    2.2500    0.0000 C   0  0  0  0  0  0  0  0  0  0  0  0
    8.0622    1.7500    0.0000 C   0  0  0  0  0  0  0  0  0  0  0  0
    7.1962    3.2500    0.0000 C   0  0  0  0  0  0  0  0  0  0  0  0
    8.9282    2.2500    0.0000 C   0  0  0  0  0  0  0  0  0  0  0  0
    8.0622    3.7500    0.0000 C   0  0  0  0  0  0  0  0  0  0  0  0
    8.9282    3.2500    0.0000 C   0  0  0  0  0  0  0  0  0  0  0  0
    5.4641    1.2500    0.0000 C   0  0  0  0  0  0  0  0  0  0  0  0
    6.3301    1.7500    0.0000 C   0  0  0  0  0  0  0  0  0  0  0  0
    2.3291   -1.9400    0.0000 H   0  0  0  0  0  0  0  0  0  0  0  0
    5.1350   -1.9400    0.0000 H   0  0  0  0  0  0  0  0  0  0  0  0
    5.1350   -0.5600    0.0000 H   0  0  0  0  0  0  0  0  0  0  0  0
    4.3860    1.3326    0.0000 H   0  0  0  0  0  0  0  0  0  0  0  0
    3.9875    0.6423    0.0000 H   0  0  0  0  0  0  0  0  0  0  0  0
    5.1350   -3.5600    0.0000 H   0  0  0  0  0  0  0  0  0  0  0  0
    3.7320   -4.3700    0.0000 H   0  0  0  0  0  0  0  0  0  0  0  0
    8.0622    1.1300    0.0000 H   0  0  0  0  0  0  0  0  0  0  0  0
    6.6592    3.5600    0.0000 H   0  0  0  0  0  0  0  0  0  0  0  0
    9.4651    1.9400    0.0000 H   0  0  0  0  0  0  0  0  0  0  0  0
    8.0622    4.3700    0.0000 H   0  0  0  0  0  0  0  0  0  0  0  0
    9.4651    3.5600    0.0000 H   0  0  0  0  0  0  0  0  0  0  0  0
  1  9  1  0  0  0  0
  2  5  2  0  0  0  0
  3  5  1  0  0  0  0
  3  8  1  0  0  0  0
  3 22  1  0  0  0  0
  4  5  1  0  0  0  0
  4  6  2  0  0  0  0
  4  7  1  0  0  0  0
  6  9  1  0  0  0  0
  6 20  1  0  0  0  0
  7 10  2  0  0  0  0
  7 21  1  0  0  0  0
  8 18  1  0  0  0  0
  8 23  1  0  0  0  0
  8 24  1  0  0  0  0
  9 11  2  0  0  0  0
 10 11  1  0  0  0  0
 10 25  1  0  0  0  0
 11 26  1  0  0  0  0
 12 13  2  0  0  0  0
 12 14  1  0  0  0  0
 12 19  1  0  0  0  0
 13 15  1  0  0  0  0
 13 27  1  0  0  0  0
 14 16  2  0  0  0  0
 14 28  1  0  0  0  0
 15 17  2  0  0  0  0
 15 29  1  0  0  0  0
 16 17  1  0  0  0  0
 16 30  1  0  0  0  0
 17 31  1  0  0  0  0
 18 19  3  0  0  0  0
M  END
> <PUBCHEM_COMPOUND_CID>
30342060

> <PUBCHEM_COMPOUND_CANONICALIZED>
1

> <PUBCHEM_CACTVS_COMPLEXITY>
361

> <PUBCHEM_CACTVS_HBOND_ACCEPTOR>
1

> <PUBCHEM_CACTVS_HBOND_DONOR>
1

> <PUBCHEM_CACTVS_ROTATABLE_BOND>
3

> <PUBCHEM_CACTVS_SUBSKEYS>
AAADccB6IAAAAgAAAAAAAAAAAAAAAAAAAAAwYAAAAAAAAAABQAAAHgAwAAAADADDmAQwAILAAADIEiFSEAiCAAAkAAAIiIEIBMgIIDKAlRGEIQhghgCIiYcYiACOAAAAAAAAAAAAAAAAAAAAAAAAAAAAAA==

> <PUBCHEM_IUPAC_OPENEYE_NAME>
3-iodo-N-(3-phenylprop-2-ynyl)benzamide

> <PUBCHEM_IUPAC_CAS_NAME>
3-iodo-N-(3-phenylprop-2-ynyl)benzamide

> <PUBCHEM_IUPAC_NAME>
3-iodo-N-(3-phenylprop-2-ynyl)benzamide

> <PUBCHEM_IUPAC_SYSTEMATIC_NAME>
3-iodanyl-N-(3-phenylprop-2-ynyl)benzamide

> <PUBCHEM_IUPAC_TRADITIONAL_NAME>
3-iodo-N-(3-phenylprop-2-ynyl)benzamide

> <PUBCHEM_IUPAC_INCHI>
InChI=1S/C16H12INO/c17-15-10-4-9-14(12-15)16(19)18-11-5-8-13-6-2-1-3-7-13/h1-4,6-7,9-10,12H,11H2,(H,18,19)

> <PUBCHEM_IUPAC_INCHIKEY>
SJNSSMAQGCNYJR-UHFFFAOYSA-N

> <PUBCHEM_XLOGP3>
4.2

> <PUBCHEM_EXACT_MASS>
360.996362

> <PUBCHEM_MOLECULAR_FORMULA>
C16H12INO

> <PUBCHEM_MOLECULAR_WEIGHT>
361.17705

> <PUBCHEM_OPENEYE_CAN_SMILES>
C1=CC=C(C=C1)C#CCNC(=O)C2=CC(=CC=C2)I

> <PUBCHEM_OPENEYE_ISO_SMILES>
C1=CC=C(C=C1)C#CCNC(=O)C2=CC(=CC=C2)I

> <PUBCHEM_CACTVS_TPSA>
29.1

> <PUBCHEM_MONOISOTOPIC_WEIGHT>
360.996362

> <PUBCHEM_TOTAL_CHARGE>
0

> <PUBCHEM_HEAVY_ATOM_COUNT>
19

> <PUBCHEM_ATOM_DEF_STEREO_COUNT>
0

> <PUBCHEM_ATOM_UDEF_STEREO_COUNT>
0

> <PUBCHEM_BOND_DEF_STEREO_COUNT>
0

> <PUBCHEM_BOND_UDEF_STEREO_COUNT>
0

> <PUBCHEM_ISOTOPIC_ATOM_COUNT>
0

> <PUBCHEM_COMPONENT_COUNT>
1

> <PUBCHEM_CACTVS_TAUTO_COUNT>
2

> <PUBCHEM_COORDINATE_TYPE>
1
5
255

> <PUBCHEM_BONDANNOTATIONS>
10  11  8
12  13  8
12  14  8
13  15  8
14  16  8
15  17  8
16  17  8
4  6  8
4  7  8
6  9  8
7  10  8
9  11  8

$$$$
