65701861
  -OEChem-11301218262D

 35 37  0     1  0  0  0  0  0999 V2000
    5.9674    0.2520    0.0000 N   0  0  0  0  0  0  0  0  0  0  0  0
    4.6783   -2.5142    0.0000 N   0  0  0  0  0  0  0  0  0  0  0  0
    6.2781    1.2025    0.0000 C   0  0  3  0  0  0  0  0  0  0  0  0
    7.2566    1.4087    0.0000 C   0  0  0  0  0  0  0  0  0  0  0  0
    5.6103    1.9468    0.0000 C   0  0  0  0  0  0  0  0  0  0  0  0
    7.5673    2.3592    0.0000 C   0  0  0  0  0  0  0  0  0  0  0  0
    4.9889    0.0458    0.0000 C   0  0  0  0  0  0  0  0  0  0  0  0
    5.9209    2.8973    0.0000 C   0  0  0  0  0  0  0  0  0  0  0  0
    4.6783   -0.9048    0.0000 C   0  0  0  0  0  0  0  0  0  0  0  0
    6.8994    3.1035    0.0000 C   0  0  0  0  0  0  0  0  0  0  0  0
    3.7320   -1.2095    0.0000 C   0  0  0  0  0  0  0  0  0  0  0  0
    3.7320   -2.2095    0.0000 C   0  0  0  0  0  0  0  0  0  0  0  0
    5.2619   -1.7095    0.0000 C   0  0  0  0  0  0  0  0  0  0  0  0
    2.8660   -0.7095    0.0000 C   0  0  0  0  0  0  0  0  0  0  0  0
    2.8660   -2.7095    0.0000 C   0  0  0  0  0  0  0  0  0  0  0  0
    2.0000   -1.2095    0.0000 C   0  0  0  0  0  0  0  0  0  0  0  0
    2.0000   -2.2095    0.0000 C   0  0  0  0  0  0  0  0  0  0  0  0
    5.6714    1.0747    0.0000 H   0  0  0  0  0  0  0  0  0  0  0  0
    7.2772    0.7891    0.0000 H   0  0  0  0  0  0  0  0  0  0  0  0
    7.8704    1.3214    0.0000 H   0  0  0  0  0  0  0  0  0  0  0  0
    5.0633    2.2388    0.0000 H   0  0  0  0  0  0  0  0  0  0  0  0
    5.2277    1.4589    0.0000 H   0  0  0  0  0  0  0  0  0  0  0  0
    8.1142    2.0672    0.0000 H   0  0  0  0  0  0  0  0  0  0  0  0
    7.9498    2.8472    0.0000 H   0  0  0  0  0  0  0  0  0  0  0  0
    6.3815   -0.2095    0.0000 H   0  0  0  0  0  0  0  0  0  0  0  0
    4.9684    0.6654    0.0000 H   0  0  0  0  0  0  0  0  0  0  0  0
    4.3751    0.1331    0.0000 H   0  0  0  0  0  0  0  0  0  0  0  0
    5.5069    3.3588    0.0000 H   0  0  0  0  0  0  0  0  0  0  0  0
    7.0920    3.6929    0.0000 H   0  0  0  0  0  0  0  0  0  0  0  0
    5.8819   -1.7095    0.0000 H   0  0  0  0  0  0  0  0  0  0  0  0
    4.8709   -3.1035    0.0000 H   0  0  0  0  0  0  0  0  0  0  0  0
    2.8660   -0.0895    0.0000 H   0  0  0  0  0  0  0  0  0  0  0  0
    2.8660   -3.3295    0.0000 H   0  0  0  0  0  0  0  0  0  0  0  0
    1.4631   -0.8995    0.0000 H   0  0  0  0  0  0  0  0  0  0  0  0
    1.4631   -2.5195    0.0000 H   0  0  0  0  0  0  0  0  0  0  0  0
  1  3  1  0  0  0  0
  1  7  1  0  0  0  0
  1 25  1  0  0  0  0
  2 12  1  0  0  0  0
  2 13  1  0  0  0  0
  2 31  1  0  0  0  0
  3  4  1  0  0  0  0
  3  5  1  0  0  0  0
  3 18  1  0  0  0  0
  4  6  1  0  0  0  0
  4 19  1  0  0  0  0
  4 20  1  0  0  0  0
  5  8  1  0  0  0  0
  5 21  1  0  0  0  0
  5 22  1  0  0  0  0
  6 10  1  0  0  0  0
  6 23  1  0  0  0  0
  6 24  1  0  0  0  0
  7  9  1  0  0  0  0
  7 26  1  0  0  0  0
  7 27  1  0  0  0  0
  8 10  2  0  0  0  0
  8 28  1  0  0  0  0
  9 11  1  0  0  0  0
  9 13  2  0  0  0  0
 10 29  1  0  0  0  0
 11 12  1  0  0  0  0
 11 14  2  0  0  0  0
 12 15  2  0  0  0  0
 13 30  1  0  0  0  0
 14 16  1  0  0  0  0
 14 32  1  0  0  0  0
 15 17  1  0  0  0  0
 15 33  1  0  0  0  0
 16 17  2  0  0  0  0
 16 34  1  0  0  0  0
 17 35  1  0  0  0  0
M  END
> <PUBCHEM_COMPOUND_CID>
65701861

> <PUBCHEM_COMPOUND_CANONICALIZED>
1

> <PUBCHEM_CACTVS_COMPLEXITY>
274

> <PUBCHEM_CACTVS_HBOND_ACCEPTOR>
1

> <PUBCHEM_CACTVS_HBOND_DONOR>
2

> <PUBCHEM_CACTVS_ROTATABLE_BOND>
3

> <PUBCHEM_CACTVS_SUBSKEYS>
AAADceBzAAAAAAAAAAAAAAAAAAAAAWAAAAAwQAAAAAAAAFgB8AAAHAAQAAAADCjBHgQ8wPLJkACgAzRnRACCgCAxAiAI2aA4ZJgIIOLA0ZGEIAhgkADIyAcQgMAOgAAAAAACAAAAAAAAAAQAAAAAAAAAAA==

> <PUBCHEM_IUPAC_OPENEYE_NAME>
N-(1H-indol-3-ylmethyl)cyclohex-3-en-1-amine

> <PUBCHEM_IUPAC_CAS_NAME>
N-(1H-indol-3-ylmethyl)-1-cyclohex-3-enamine

> <PUBCHEM_IUPAC_NAME>
N-(1H-indol-3-ylmethyl)cyclohex-3-en-1-amine

> <PUBCHEM_IUPAC_SYSTEMATIC_NAME>
N-(1H-indol-3-ylmethyl)cyclohex-3-en-1-amine

> <PUBCHEM_IUPAC_TRADITIONAL_NAME>
cyclohex-3-en-1-yl(1H-indol-3-ylmethyl)amine

> <PUBCHEM_IUPAC_INCHI>
InChI=1S/C15H18N2/c1-2-6-13(7-3-1)16-10-12-11-17-15-9-5-4-8-14(12)15/h1-2,4-5,8-9,11,13,16-17H,3,6-7,10H2

> <PUBCHEM_IUPAC_INCHIKEY>
LWVTUIOMJJBRJR-UHFFFAOYSA-N

> <PUBCHEM_XLOGP3>
2.9

> <PUBCHEM_EXACT_MASS>
226.146999

> <PUBCHEM_MOLECULAR_FORMULA>
C15H18N2

> <PUBCHEM_MOLECULAR_WEIGHT>
226.31682

> <PUBCHEM_OPENEYE_CAN_SMILES>
C1CC(CC=C1)NCC2=CNC3=CC=CC=C32

> <PUBCHEM_OPENEYE_ISO_SMILES>
C1CC(CC=C1)NCC2=CNC3=CC=CC=C32

> <PUBCHEM_CACTVS_TPSA>
27.8

> <PUBCHEM_MONOISOTOPIC_WEIGHT>
226.146999

> <PUBCHEM_TOTAL_CHARGE>
0

> <PUBCHEM_HEAVY_ATOM_COUNT>
17

> <PUBCHEM_ATOM_DEF_STEREO_COUNT>
0

> <PUBCHEM_ATOM_UDEF_STEREO_COUNT>
1

> <PUBCHEM_BOND_DEF_STEREO_COUNT>
0

> <PUBCHEM_BOND_UDEF_STEREO_COUNT>
0

> <PUBCHEM_ISOTOPIC_ATOM_COUNT>
0

> <PUBCHEM_COMPONENT_COUNT>
1

> <PUBCHEM_CACTVS_TAUTO_COUNT>
1

> <PUBCHEM_COORDINATE_TYPE>
1
5
255

> <PUBCHEM_BONDANNOTATIONS>
3  1  3
11  12  8
11  14  8
12  15  8
14  16  8
15  17  8
16  17  8
2  12  8
2  13  8
9  11  8
9  13  8

$$$$
65702916
  -OEChem-11301218262D

 38 40  0     1  0  0  0  0  0999 V2000
    4.5981   -0.7073    0.0000 N   0  0  0  0  0  0  0  0  0  0  0  0
    5.4641   -0.2073    0.0000 C   0  0  3  0  0  0  0  0  0  0  0  0
    3.7320   -0.2073    0.0000 C   0  0  3  0  0  0  0  0  0  0  0  0
    5.4641    0.7927    0.0000 C   0  0  0  0  0  0  0  0  0  0  0  0
    6.3301   -0.7073    0.0000 C   0  0  0  0  0  0  0  0  0  0  0  0
    6.3301    1.2927    0.0000 C   0  0  0  0  0  0  0  0  0  0  0  0
    3.7320    0.7927    0.0000 C   0  0  0  0  0  0  0  0  0  0  0  0
    7.1962   -0.2073    0.0000 C   0  0  0  0  0  0  0  0  0  0  0  0
    2.8660   -0.7073    0.0000 C   0  0  0  0  0  0  0  0  0  0  0  0
    7.1962    0.7927    0.0000 C   0  0  0  0  0  0  0  0  0  0  0  0
    2.8660    1.2927    0.0000 C   0  0  0  0  0  0  0  0  0  0  0  0
    2.0000   -0.2073    0.0000 C   0  0  0  0  0  0  0  0  0  0  0  0
    2.0000    0.7927    0.0000 C   0  0  0  0  0  0  0  0  0  0  0  0
    8.0901   -0.7420    0.0000 C   0  0  0  0  0  0  0  0  0  0  0  0
    8.0901    1.3273    0.0000 C   0  0  0  0  0  0  0  0  0  0  0  0
    8.9962   -0.2281    0.0000 C   0  0  0  0  0  0  0  0  0  0  0  0
    8.9962    0.8135    0.0000 C   0  0  0  0  0  0  0  0  0  0  0  0
    5.4641   -0.8273    0.0000 H   0  0  0  0  0  0  0  0  0  0  0  0
    3.7320   -0.8273    0.0000 H   0  0  0  0  0  0  0  0  0  0  0  0
    5.2520    1.3753    0.0000 H   0  0  0  0  0  0  0  0  0  0  0  0
    4.8535    0.6850    0.0000 H   0  0  0  0  0  0  0  0  0  0  0  0
    5.9316   -1.1823    0.0000 H   0  0  0  0  0  0  0  0  0  0  0  0
    6.7287   -1.1823    0.0000 H   0  0  0  0  0  0  0  0  0  0  0  0
    4.5981   -1.3273    0.0000 H   0  0  0  0  0  0  0  0  0  0  0  0
    6.7287    1.7676    0.0000 H   0  0  0  0  0  0  0  0  0  0  0  0
    5.9316    1.7676    0.0000 H   0  0  0  0  0  0  0  0  0  0  0  0
    4.3426    0.6850    0.0000 H   0  0  0  0  0  0  0  0  0  0  0  0
    3.9441    1.3753    0.0000 H   0  0  0  0  0  0  0  0  0  0  0  0
    2.4675   -1.1823    0.0000 H   0  0  0  0  0  0  0  0  0  0  0  0
    3.2646   -1.1823    0.0000 H   0  0  0  0  0  0  0  0  0  0  0  0
    3.2646    1.7676    0.0000 H   0  0  0  0  0  0  0  0  0  0  0  0
    2.4675    1.7676    0.0000 H   0  0  0  0  0  0  0  0  0  0  0  0
    1.4631   -0.5173    0.0000 H   0  0  0  0  0  0  0  0  0  0  0  0
    1.4631    1.1027    0.0000 H   0  0  0  0  0  0  0  0  0  0  0  0
    8.0829   -1.3620    0.0000 H   0  0  0  0  0  0  0  0  0  0  0  0
    8.0829    1.9473    0.0000 H   0  0  0  0  0  0  0  0  0  0  0  0
    9.5319   -0.5402    0.0000 H   0  0  0  0  0  0  0  0  0  0  0  0
    9.5319    1.1256    0.0000 H   0  0  0  0  0  0  0  0  0  0  0  0
  1  2  1  0  0  0  0
  1  3  1  0  0  0  0
  1 24  1  0  0  0  0
  2  4  1  0  0  0  0
  2  5  1  0  0  0  0
  2 18  1  0  0  0  0
  3  7  1  0  0  0  0
  3  9  1  0  0  0  0
  3 19  1  0  0  0  0
  4  6  1  0  0  0  0
  4 20  1  0  0  0  0
  4 21  1  0  0  0  0
  5  8  1  0  0  0  0
  5 22  1  0  0  0  0
  5 23  1  0  0  0  0
  6 10  1  0  0  0  0
  6 25  1  0  0  0  0
  6 26  1  0  0  0  0
  7 11  1  0  0  0  0
  7 27  1  0  0  0  0
  7 28  1  0  0  0  0
  8 10  1  0  0  0  0
  8 14  2  0  0  0  0
  9 12  1  0  0  0  0
  9 29  1  0  0  0  0
  9 30  1  0  0  0  0
 10 15  2  0  0  0  0
 11 13  1  0  0  0  0
 11 31  1  0  0  0  0
 11 32  1  0  0  0  0
 12 13  2  0  0  0  0
 12 33  1  0  0  0  0
 13 34  1  0  0  0  0
 14 16  1  0  0  0  0
 14 35  1  0  0  0  0
 15 17  1  0  0  0  0
 15 36  1  0  0  0  0
 16 17  2  0  0  0  0
 16 37  1  0  0  0  0
 17 38  1  0  0  0  0
M  END
> <PUBCHEM_COMPOUND_CID>
65702916

> <PUBCHEM_COMPOUND_CANONICALIZED>
1

> <PUBCHEM_CACTVS_COMPLEXITY>
271

> <PUBCHEM_CACTVS_HBOND_ACCEPTOR>
1

> <PUBCHEM_CACTVS_HBOND_DONOR>
1

> <PUBCHEM_CACTVS_ROTATABLE_BOND>
2

> <PUBCHEM_CACTVS_SUBSKEYS>
AAADceB6AAAAAAAAAAAAAAAAAAAAAAAAAAAwYIAAAAAAAADBAAAAHAAQAAAADCjBGAQwAILAAACAAiBCAAACAAAgAAAIiIAIAIgIICKAkRGEIAAgkACIiAcQgIAOgAAAAAAQAAAQAACAACAAAAAAAAAAAA==

> <PUBCHEM_IUPAC_OPENEYE_NAME>
N-cyclohex-3-en-1-yltetralin-2-amine

> <PUBCHEM_IUPAC_CAS_NAME>
N-(1-cyclohex-3-enyl)-1,2,3,4-tetrahydronaphthalen-2-amine

> <PUBCHEM_IUPAC_NAME>
N-cyclohex-3-en-1-yl-1,2,3,4-tetrahydronaphthalen-2-amine

> <PUBCHEM_IUPAC_SYSTEMATIC_NAME>
N-cyclohex-3-en-1-yl-1,2,3,4-tetrahydronaphthalen-2-amine

> <PUBCHEM_IUPAC_TRADITIONAL_NAME>
cyclohex-3-en-1-yl(tetralin-2-yl)amine

> <PUBCHEM_IUPAC_INCHI>
InChI=1S/C16H21N/c1-2-8-15(9-3-1)17-16-11-10-13-6-4-5-7-14(13)12-16/h1-2,4-7,15-17H,3,8-12H2

> <PUBCHEM_IUPAC_INCHIKEY>
NWKUUAVCPZNVNI-UHFFFAOYSA-N

> <PUBCHEM_XLOGP3>
4

> <PUBCHEM_EXACT_MASS>
227.1674

> <PUBCHEM_MOLECULAR_FORMULA>
C16H21N

> <PUBCHEM_MOLECULAR_WEIGHT>
227.34464

> <PUBCHEM_OPENEYE_CAN_SMILES>
C1CC(CC=C1)NC2CCC3=CC=CC=C3C2

> <PUBCHEM_OPENEYE_ISO_SMILES>
C1CC(CC=C1)NC2CCC3=CC=CC=C3C2

> <PUBCHEM_CACTVS_TPSA>
12

> <PUBCHEM_MONOISOTOPIC_WEIGHT>
227.1674

> <PUBCHEM_TOTAL_CHARGE>
0

> <PUBCHEM_HEAVY_ATOM_COUNT>
17

> <PUBCHEM_ATOM_DEF_STEREO_COUNT>
0

> <PUBCHEM_ATOM_UDEF_STEREO_COUNT>
2

> <PUBCHEM_BOND_DEF_STEREO_COUNT>
0

> <PUBCHEM_BOND_UDEF_STEREO_COUNT>
0

> <PUBCHEM_ISOTOPIC_ATOM_COUNT>
0

> <PUBCHEM_COMPONENT_COUNT>
1

> <PUBCHEM_CACTVS_TAUTO_COUNT>
1

> <PUBCHEM_COORDINATE_TYPE>
1
5
255

> <PUBCHEM_BONDANNOTATIONS>
2  1  3
3  1  3
10  15  8
14  16  8
15  17  8
16  17  8
8  10  8
8  14  8

$$$$
