66005644
  -OEChem-11301218272D

 36 38  0     0  0  0  0  0  0999 V2000
    2.0000   -3.1209    0.0000 Cl  0  0  0  0  0  0  0  0  0  0  0  0
    4.9568   -0.4138    0.0000 N   0  0  0  0  0  0  0  0  0  0  0  0
    4.0908   -1.9138    0.0000 C   0  0  0  0  0  0  0  0  0  0  0  0
    3.8320   -2.8797    0.0000 C   0  0  0  0  0  0  0  0  0  0  0  0
    3.1248   -1.6550    0.0000 C   0  0  0  0  0  0  0  0  0  0  0  0
    2.8660   -2.6209    0.0000 C   0  0  0  0  0  0  0  0  0  0  0  0
    4.9568   -1.4138    0.0000 C   0  0  0  0  0  0  0  0  0  0  0  0
    5.8228    0.0862    0.0000 C   0  0  0  0  0  0  0  0  0  0  0  0
    5.8228    1.0862    0.0000 C   0  0  0  0  0  0  0  0  0  0  0  0
    6.6888    1.5862    0.0000 C   0  0  0  0  0  0  0  0  0  0  0  0
    4.9568    1.5862    0.0000 C   0  0  0  0  0  0  0  0  0  0  0  0
    6.6888    2.5862    0.0000 C   0  0  0  0  0  0  0  0  0  0  0  0
    7.5828    1.0516    0.0000 C   0  0  0  0  0  0  0  0  0  0  0  0
    4.9568    2.5862    0.0000 C   0  0  0  0  0  0  0  0  0  0  0  0
    5.8228    3.0862    0.0000 C   0  0  0  0  0  0  0  0  0  0  0  0
    7.5828    3.1209    0.0000 C   0  0  0  0  0  0  0  0  0  0  0  0
    8.4889    1.5654    0.0000 C   0  0  0  0  0  0  0  0  0  0  0  0
    8.4889    2.6070    0.0000 C   0  0  0  0  0  0  0  0  0  0  0  0
    4.0098   -1.2991    0.0000 H   0  0  0  0  0  0  0  0  0  0  0  0
    3.6715   -3.4786    0.0000 H   0  0  0  0  0  0  0  0  0  0  0  0
    4.4308   -3.0402    0.0000 H   0  0  0  0  0  0  0  0  0  0  0  0
    3.2853   -1.0561    0.0000 H   0  0  0  0  0  0  0  0  0  0  0  0
    2.5260   -1.4945    0.0000 H   0  0  0  0  0  0  0  0  0  0  0  0
    2.3742   -2.2434    0.0000 H   0  0  0  0  0  0  0  0  0  0  0  0
    5.1688   -1.9964    0.0000 H   0  0  0  0  0  0  0  0  0  0  0  0
    5.5674   -1.3061    0.0000 H   0  0  0  0  0  0  0  0  0  0  0  0
    4.4199   -0.1038    0.0000 H   0  0  0  0  0  0  0  0  0  0  0  0
    6.0349   -0.4964    0.0000 H   0  0  0  0  0  0  0  0  0  0  0  0
    6.4334    0.1939    0.0000 H   0  0  0  0  0  0  0  0  0  0  0  0
    4.4199    1.2762    0.0000 H   0  0  0  0  0  0  0  0  0  0  0  0
    7.5756    0.4316    0.0000 H   0  0  0  0  0  0  0  0  0  0  0  0
    5.8228    3.7062    0.0000 H   0  0  0  0  0  0  0  0  0  0  0  0
    4.4199    2.8962    0.0000 H   0  0  0  0  0  0  0  0  0  0  0  0
    7.5756    3.7408    0.0000 H   0  0  0  0  0  0  0  0  0  0  0  0
    9.0246    1.2533    0.0000 H   0  0  0  0  0  0  0  0  0  0  0  0
    9.0246    2.9191    0.0000 H   0  0  0  0  0  0  0  0  0  0  0  0
  1  6  1  0  0  0  0
  2  7  1  0  0  0  0
  2  8  1  0  0  0  0
  2 27  1  0  0  0  0
  3  4  1  0  0  0  0
  3  5  1  0  0  0  0
  3  7  1  0  0  0  0
  3 19  1  0  0  0  0
  4  6  1  0  0  0  0
  4 20  1  0  0  0  0
  4 21  1  0  0  0  0
  5  6  1  0  0  0  0
  5 22  1  0  0  0  0
  5 23  1  0  0  0  0
  6 24  1  0  0  0  0
  7 25  1  0  0  0  0
  7 26  1  0  0  0  0
  8  9  1  0  0  0  0
  8 28  1  0  0  0  0
  8 29  1  0  0  0  0
  9 10  1  0  0  0  0
  9 11  2  0  0  0  0
 10 12  1  0  0  0  0
 10 13  2  0  0  0  0
 11 14  1  0  0  0  0
 11 30  1  0  0  0  0
 12 15  1  0  0  0  0
 12 16  2  0  0  0  0
 13 17  1  0  0  0  0
 13 31  1  0  0  0  0
 14 15  2  0  0  0  0
 14 33  1  0  0  0  0
 15 32  1  0  0  0  0
 16 18  1  0  0  0  0
 16 34  1  0  0  0  0
 17 18  2  0  0  0  0
 17 35  1  0  0  0  0
 18 36  1  0  0  0  0
M  END
> <PUBCHEM_COMPOUND_CID>
66005644

> <PUBCHEM_COMPOUND_CANONICALIZED>
1

> <PUBCHEM_CACTVS_COMPLEXITY>
262

> <PUBCHEM_CACTVS_HBOND_ACCEPTOR>
1

> <PUBCHEM_CACTVS_HBOND_DONOR>
1

> <PUBCHEM_CACTVS_ROTATABLE_BOND>
4

> <PUBCHEM_CACTVS_SUBSKEYS>
AAADceB6AAAEAAAAAAAAAAAAAABgAAAAAAAwYAAAAAAAAADBUAAAHAIQAAAADQPBGEQwAMLAAACAAiBCAACCAAAgAAAIiIAIBogIICKBkRGEIAhgkACIiAcQgMAOgAACAAAQAAAAAAQAACAAAAAAAAAAAA==

> <PUBCHEM_IUPAC_OPENEYE_NAME>
1-(3-chlorocyclobutyl)-N-(1-naphthylmethyl)methanamine

> <PUBCHEM_IUPAC_CAS_NAME>
1-(3-chlorocyclobutyl)-N-(1-naphthalenylmethyl)methanamine

> <PUBCHEM_IUPAC_NAME>
1-(3-chlorocyclobutyl)-N-(naphthalen-1-ylmethyl)methanamine

> <PUBCHEM_IUPAC_SYSTEMATIC_NAME>
1-(3-chloranylcyclobutyl)-N-(naphthalen-1-ylmethyl)methanamine

> <PUBCHEM_IUPAC_TRADITIONAL_NAME>
(3-chlorocyclobutyl)methyl-(1-naphthylmethyl)amine

> <PUBCHEM_IUPAC_INCHI>
InChI=1S/C16H18ClN/c17-15-8-12(9-15)10-18-11-14-6-3-5-13-4-1-2-7-16(13)14/h1-7,12,15,18H,8-11H2

> <PUBCHEM_IUPAC_INCHIKEY>
WGWWUVQTPCBHNU-UHFFFAOYSA-N

> <PUBCHEM_XLOGP3>
4

> <PUBCHEM_EXACT_MASS>
259.112777

> <PUBCHEM_MOLECULAR_FORMULA>
C16H18ClN

> <PUBCHEM_MOLECULAR_WEIGHT>
259.77382

> <PUBCHEM_OPENEYE_CAN_SMILES>
C1C(CC1Cl)CNCC2=CC=CC3=CC=CC=C32

> <PUBCHEM_OPENEYE_ISO_SMILES>
C1C(CC1Cl)CNCC2=CC=CC3=CC=CC=C32

> <PUBCHEM_CACTVS_TPSA>
12

> <PUBCHEM_MONOISOTOPIC_WEIGHT>
259.112777

> <PUBCHEM_TOTAL_CHARGE>
0

> <PUBCHEM_HEAVY_ATOM_COUNT>
18

> <PUBCHEM_ATOM_DEF_STEREO_COUNT>
0

> <PUBCHEM_ATOM_UDEF_STEREO_COUNT>
0

> <PUBCHEM_BOND_DEF_STEREO_COUNT>
0

> <PUBCHEM_BOND_UDEF_STEREO_COUNT>
0

> <PUBCHEM_ISOTOPIC_ATOM_COUNT>
0

> <PUBCHEM_COMPONENT_COUNT>
1

> <PUBCHEM_CACTVS_TAUTO_COUNT>
1

> <PUBCHEM_COORDINATE_TYPE>
1
5
255

> <PUBCHEM_BONDANNOTATIONS>
10  12  8
10  13  8
11  14  8
12  15  8
12  16  8
13  17  8
14  15  8
16  18  8
17  18  8
9  10  8
9  11  8

$$$$
66023470
  -OEChem-11301218282D

 38 40  0     0  0  0  0  0  0999 V2000
    4.1179   -2.3835    0.0000 O   0  0  0  0  0  0  0  0  0  0  0  0
    3.5827   -0.7363    0.0000 C   0  0  0  0  0  0  0  0  0  0  0  0
    3.0827    0.1298    0.0000 C   0  0  0  0  0  0  0  0  0  0  0  0
    2.9136   -1.4794    0.0000 C   0  0  0  0  0  0  0  0  0  0  0  0
    2.1045   -0.0781    0.0000 C   0  0  0  0  0  0  0  0  0  0  0  0
    2.0000   -1.0727    0.0000 C   0  0  0  0  0  0  0  0  0  0  0  0
    4.4487   -0.2363    0.0000 C   0  0  0  0  0  0  0  0  0  0  0  0
    4.3258   -1.4054    0.0000 C   0  0  0  0  0  0  0  0  0  0  0  0
    4.4487    0.7637    0.0000 C   0  0  0  0  0  0  0  0  0  0  0  0
    5.3147    1.2637    0.0000 C   0  0  0  0  0  0  0  0  0  0  0  0
    3.5827    1.2637    0.0000 C   0  0  0  0  0  0  0  0  0  0  0  0
    5.3147    2.2637    0.0000 C   0  0  0  0  0  0  0  0  0  0  0  0
    3.5827    2.2637    0.0000 C   0  0  0  0  0  0  0  0  0  0  0  0
    6.2087    0.7291    0.0000 C   0  0  0  0  0  0  0  0  0  0  0  0
    4.4487    2.7637    0.0000 C   0  0  0  0  0  0  0  0  0  0  0  0
    6.2087    2.7984    0.0000 C   0  0  0  0  0  0  0  0  0  0  0  0
    7.1147    1.2429    0.0000 C   0  0  0  0  0  0  0  0  0  0  0  0
    7.1147    2.2846    0.0000 C   0  0  0  0  0  0  0  0  0  0  0  0
    3.6491    0.3819    0.0000 H   0  0  0  0  0  0  0  0  0  0  0  0
    2.8911    0.7194    0.0000 H   0  0  0  0  0  0  0  0  0  0  0  0
    2.6035   -2.0163    0.0000 H   0  0  0  0  0  0  0  0  0  0  0  0
    3.4151   -1.8438    0.0000 H   0  0  0  0  0  0  0  0  0  0  0  0
    2.0397    0.5385    0.0000 H   0  0  0  0  0  0  0  0  0  0  0  0
    1.4845   -0.0781    0.0000 H   0  0  0  0  0  0  0  0  0  0  0  0
    1.3936   -0.9438    0.0000 H   0  0  0  0  0  0  0  0  0  0  0  0
    1.8084   -1.6623    0.0000 H   0  0  0  0  0  0  0  0  0  0  0  0
    4.6608   -0.8189    0.0000 H   0  0  0  0  0  0  0  0  0  0  0  0
    5.0593   -0.1286    0.0000 H   0  0  0  0  0  0  0  0  0  0  0  0
    4.9007   -1.6376    0.0000 H   0  0  0  0  0  0  0  0  0  0  0  0
    4.6544   -0.8796    0.0000 H   0  0  0  0  0  0  0  0  0  0  0  0
    4.5787   -2.7984    0.0000 H   0  0  0  0  0  0  0  0  0  0  0  0
    3.0457    0.9537    0.0000 H   0  0  0  0  0  0  0  0  0  0  0  0
    3.0457    2.5737    0.0000 H   0  0  0  0  0  0  0  0  0  0  0  0
    6.2015    0.1091    0.0000 H   0  0  0  0  0  0  0  0  0  0  0  0
    4.4487    3.3837    0.0000 H   0  0  0  0  0  0  0  0  0  0  0  0
    6.2015    3.4184    0.0000 H   0  0  0  0  0  0  0  0  0  0  0  0
    7.6505    0.9309    0.0000 H   0  0  0  0  0  0  0  0  0  0  0  0
    7.6505    2.5966    0.0000 H   0  0  0  0  0  0  0  0  0  0  0  0
  1  8  1  0  0  0  0
  1 31  1  0  0  0  0
  2  3  1  0  0  0  0
  2  4  1  0  0  0  0
  2  7  1  0  0  0  0
  2  8  1  0  0  0  0
  3  5  1  0  0  0  0
  3 19  1  0  0  0  0
  3 20  1  0  0  0  0
  4  6  1  0  0  0  0
  4 21  1  0  0  0  0
  4 22  1  0  0  0  0
  5  6  1  0  0  0  0
  5 23  1  0  0  0  0
  5 24  1  0  0  0  0
  6 25  1  0  0  0  0
  6 26  1  0  0  0  0
  7  9  1  0  0  0  0
  7 27  1  0  0  0  0
  7 28  1  0  0  0  0
  8 29  1  0  0  0  0
  8 30  1  0  0  0  0
  9 10  1  0  0  0  0
  9 11  2  0  0  0  0
 10 12  1  0  0  0  0
 10 14  2  0  0  0  0
 11 13  1  0  0  0  0
 11 32  1  0  0  0  0
 12 15  1  0  0  0  0
 12 16  2  0  0  0  0
 13 15  2  0  0  0  0
 13 33  1  0  0  0  0
 14 17  1  0  0  0  0
 14 34  1  0  0  0  0
 15 35  1  0  0  0  0
 16 18  1  0  0  0  0
 16 36  1  0  0  0  0
 17 18  2  0  0  0  0
 17 37  1  0  0  0  0
 18 38  1  0  0  0  0
M  END
> <PUBCHEM_COMPOUND_CID>
66023470

> <PUBCHEM_COMPOUND_CANONICALIZED>
1

> <PUBCHEM_CACTVS_COMPLEXITY>
267

> <PUBCHEM_CACTVS_HBOND_ACCEPTOR>
1

> <PUBCHEM_CACTVS_HBOND_DONOR>
1

> <PUBCHEM_CACTVS_ROTATABLE_BOND>
3

> <PUBCHEM_CACTVS_SUBSKEYS>
AAADceB4IAAAAAAAAAAAAAAAAAAAAYAAAAAwYAAAAAAAAADBUAAAGgAACAAADgCgmAIwAMAAAgCAAiBCAAACAAAgAAAIiAAAAIgIMCKAERCAYAAkgAAIiAeAwPAPgAACAAAQAAAAAAQAACAAAAAAAAAAAA==

> <PUBCHEM_IUPAC_OPENEYE_NAME>
[1-(1-naphthylmethyl)cyclopentyl]methanol

> <PUBCHEM_IUPAC_CAS_NAME>
[1-(1-naphthalenylmethyl)cyclopentyl]methanol

> <PUBCHEM_IUPAC_NAME>
[1-(naphthalen-1-ylmethyl)cyclopentyl]methanol

> <PUBCHEM_IUPAC_SYSTEMATIC_NAME>
[1-(naphthalen-1-ylmethyl)cyclopentyl]methanol

> <PUBCHEM_IUPAC_TRADITIONAL_NAME>
[1-(1-naphthylmethyl)cyclopentyl]methanol

> <PUBCHEM_IUPAC_INCHI>
InChI=1S/C17H20O/c18-13-17(10-3-4-11-17)12-15-8-5-7-14-6-1-2-9-16(14)15/h1-2,5-9,18H,3-4,10-13H2

> <PUBCHEM_IUPAC_INCHIKEY>
XFOZWKVWSIEUNM-UHFFFAOYSA-N

> <PUBCHEM_XLOGP3>
4.9

> <PUBCHEM_EXACT_MASS>
240.151415

> <PUBCHEM_MOLECULAR_FORMULA>
C17H20O

> <PUBCHEM_MOLECULAR_WEIGHT>
240.3401

> <PUBCHEM_OPENEYE_CAN_SMILES>
C1CCC(C1)(CC2=CC=CC3=CC=CC=C32)CO

> <PUBCHEM_OPENEYE_ISO_SMILES>
C1CCC(C1)(CC2=CC=CC3=CC=CC=C32)CO

> <PUBCHEM_CACTVS_TPSA>
20.2

> <PUBCHEM_MONOISOTOPIC_WEIGHT>
240.151415

> <PUBCHEM_TOTAL_CHARGE>
0

> <PUBCHEM_HEAVY_ATOM_COUNT>
18

> <PUBCHEM_ATOM_DEF_STEREO_COUNT>
0

> <PUBCHEM_ATOM_UDEF_STEREO_COUNT>
0

> <PUBCHEM_BOND_DEF_STEREO_COUNT>
0

> <PUBCHEM_BOND_UDEF_STEREO_COUNT>
0

> <PUBCHEM_ISOTOPIC_ATOM_COUNT>
0

> <PUBCHEM_COMPONENT_COUNT>
1

> <PUBCHEM_CACTVS_TAUTO_COUNT>
1

> <PUBCHEM_COORDINATE_TYPE>
1
5
255

> <PUBCHEM_BONDANNOTATIONS>
10  12  8
10  14  8
11  13  8
12  15  8
12  16  8
13  15  8
14  17  8
16  18  8
17  18  8
9  10  8
9  11  8

$$$$
66023999
  -OEChem-11301218282D

 39 41  0     0  0  0  0  0  0999 V2000
    3.8660   -1.7673    0.0000 N   0  0  0  0  0  0  0  0  0  0  0  0
    3.0000   -0.2673    0.0000 C   0  0  0  0  0  0  0  0  0  0  0  0
    2.5000    0.5987    0.0000 C   0  0  0  0  0  0  0  0  0  0  0  0
    2.0000   -0.2673    0.0000 C   0  0  0  0  0  0  0  0  0  0  0  0
    3.8660    0.2327    0.0000 C   0  0  0  0  0  0  0  0  0  0  0  0
    3.0000   -1.2673    0.0000 C   0  0  0  0  0  0  0  0  0  0  0  0
    3.8660    1.2327    0.0000 C   0  0  0  0  0  0  0  0  0  0  0  0
    4.7320    1.7327    0.0000 C   0  0  0  0  0  0  0  0  0  0  0  0
    3.8660   -2.7673    0.0000 C   0  0  0  0  0  0  0  0  0  0  0  0
    3.0000    1.7327    0.0000 C   0  0  0  0  0  0  0  0  0  0  0  0
    4.7320    2.7327    0.0000 C   0  0  0  0  0  0  0  0  0  0  0  0
    3.0000    2.7327    0.0000 C   0  0  0  0  0  0  0  0  0  0  0  0
    5.6260    1.1980    0.0000 C   0  0  0  0  0  0  0  0  0  0  0  0
    4.7320   -3.2673    0.0000 C   0  0  0  0  0  0  0  0  0  0  0  0
    3.8660    3.2327    0.0000 C   0  0  0  0  0  0  0  0  0  0  0  0
    5.6260    3.2673    0.0000 C   0  0  0  0  0  0  0  0  0  0  0  0
    6.5321    1.7118    0.0000 C   0  0  0  0  0  0  0  0  0  0  0  0
    6.5321    2.7535    0.0000 C   0  0  0  0  0  0  0  0  0  0  0  0
    1.4174   -0.0553    0.0000 H   0  0  0  0  0  0  0  0  0  0  0  0
    1.8923   -0.8779    0.0000 H   0  0  0  0  0  0  0  0  0  0  0  0
    2.9750    0.9972    0.0000 H   0  0  0  0  0  0  0  0  0  0  0  0
    2.0250    0.9972    0.0000 H   0  0  0  0  0  0  0  0  0  0  0  0
    4.0781   -0.3499    0.0000 H   0  0  0  0  0  0  0  0  0  0  0  0
    4.4766    0.3403    0.0000 H   0  0  0  0  0  0  0  0  0  0  0  0
    2.3894   -1.1597    0.0000 H   0  0  0  0  0  0  0  0  0  0  0  0
    2.7880   -1.8499    0.0000 H   0  0  0  0  0  0  0  0  0  0  0  0
    4.4030   -1.4573    0.0000 H   0  0  0  0  0  0  0  0  0  0  0  0
    3.2554   -2.6597    0.0000 H   0  0  0  0  0  0  0  0  0  0  0  0
    3.6540   -3.3499    0.0000 H   0  0  0  0  0  0  0  0  0  0  0  0
    2.4631    1.4227    0.0000 H   0  0  0  0  0  0  0  0  0  0  0  0
    2.4631    3.0427    0.0000 H   0  0  0  0  0  0  0  0  0  0  0  0
    5.6188    0.5780    0.0000 H   0  0  0  0  0  0  0  0  0  0  0  0
    4.4220   -3.8043    0.0000 H   0  0  0  0  0  0  0  0  0  0  0  0
    5.2690   -3.5773    0.0000 H   0  0  0  0  0  0  0  0  0  0  0  0
    5.0420   -2.7304    0.0000 H   0  0  0  0  0  0  0  0  0  0  0  0
    3.8660    3.8527    0.0000 H   0  0  0  0  0  0  0  0  0  0  0  0
    5.6188    3.8873    0.0000 H   0  0  0  0  0  0  0  0  0  0  0  0
    7.0678    1.3998    0.0000 H   0  0  0  0  0  0  0  0  0  0  0  0
    7.0678    3.0656    0.0000 H   0  0  0  0  0  0  0  0  0  0  0  0
  1  6  1  0  0  0  0
  1  9  1  0  0  0  0
  1 27  1  0  0  0  0
  2  3  1  0  0  0  0
  2  4  1  0  0  0  0
  2  5  1  0  0  0  0
  2  6  1  0  0  0  0
  3  4  1  0  0  0  0
  3 21  1  0  0  0  0
  3 22  1  0  0  0  0
  4 19  1  0  0  0  0
  4 20  1  0  0  0  0
  5  7  1  0  0  0  0
  5 23  1  0  0  0  0
  5 24  1  0  0  0  0
  6 25  1  0  0  0  0
  6 26  1  0  0  0  0
  7  8  1  0  0  0  0
  7 10  2  0  0  0  0
  8 11  1  0  0  0  0
  8 13  2  0  0  0  0
  9 14  1  0  0  0  0
  9 28  1  0  0  0  0
  9 29  1  0  0  0  0
 10 12  1  0  0  0  0
 10 30  1  0  0  0  0
 11 15  1  0  0  0  0
 11 16  2  0  0  0  0
 12 15  2  0  0  0  0
 12 31  1  0  0  0  0
 13 17  1  0  0  0  0
 13 32  1  0  0  0  0
 14 33  1  0  0  0  0
 14 34  1  0  0  0  0
 14 35  1  0  0  0  0
 15 36  1  0  0  0  0
 16 18  1  0  0  0  0
 16 37  1  0  0  0  0
 17 18  2  0  0  0  0
 17 38  1  0  0  0  0
 18 39  1  0  0  0  0
M  END
> <PUBCHEM_COMPOUND_CID>
66023999

> <PUBCHEM_COMPOUND_CANONICALIZED>
1

> <PUBCHEM_CACTVS_COMPLEXITY>
269

> <PUBCHEM_CACTVS_HBOND_ACCEPTOR>
1

> <PUBCHEM_CACTVS_HBOND_DONOR>
1

> <PUBCHEM_CACTVS_ROTATABLE_BOND>
5

> <PUBCHEM_CACTVS_SUBSKEYS>
AAADceB6AAAAAAAAAAAAAAAAGAAAAAAAAAAwYAAAAAAAAADBUAAAHAAQAAAADgDBGAQyAMLAAACAAiBCAAACAAAgAAAIiIAIAIgIICKAkRCEIAAgkACIiAcQgMAPgAACAAAQAAAAAAQAACAAAAAAAAAAAA==

> <PUBCHEM_IUPAC_OPENEYE_NAME>
N-[[1-(1-naphthylmethyl)cyclopropyl]methyl]ethanamine

> <PUBCHEM_IUPAC_CAS_NAME>
N-[[1-(1-naphthalenylmethyl)cyclopropyl]methyl]ethanamine

> <PUBCHEM_IUPAC_NAME>
N-[[1-(naphthalen-1-ylmethyl)cyclopropyl]methyl]ethanamine

> <PUBCHEM_IUPAC_SYSTEMATIC_NAME>
N-[[1-(naphthalen-1-ylmethyl)cyclopropyl]methyl]ethanamine

> <PUBCHEM_IUPAC_TRADITIONAL_NAME>
ethyl-[[1-(1-naphthylmethyl)cyclopropyl]methyl]amine

> <PUBCHEM_IUPAC_INCHI>
InChI=1S/C17H21N/c1-2-18-13-17(10-11-17)12-15-8-5-7-14-6-3-4-9-16(14)15/h3-9,18H,2,10-13H2,1H3

> <PUBCHEM_IUPAC_INCHIKEY>
OSXGHTWSWKLSCX-UHFFFAOYSA-N

> <PUBCHEM_XLOGP3>
4.4

> <PUBCHEM_EXACT_MASS>
239.1674

> <PUBCHEM_MOLECULAR_FORMULA>
C17H21N

> <PUBCHEM_MOLECULAR_WEIGHT>
239.35534

> <PUBCHEM_OPENEYE_CAN_SMILES>
CCNCC1(CC1)CC2=CC=CC3=CC=CC=C32

> <PUBCHEM_OPENEYE_ISO_SMILES>
CCNCC1(CC1)CC2=CC=CC3=CC=CC=C32

> <PUBCHEM_CACTVS_TPSA>
12

> <PUBCHEM_MONOISOTOPIC_WEIGHT>
239.1674

> <PUBCHEM_TOTAL_CHARGE>
0

> <PUBCHEM_HEAVY_ATOM_COUNT>
18

> <PUBCHEM_ATOM_DEF_STEREO_COUNT>
0

> <PUBCHEM_ATOM_UDEF_STEREO_COUNT>
0

> <PUBCHEM_BOND_DEF_STEREO_COUNT>
0

> <PUBCHEM_BOND_UDEF_STEREO_COUNT>
0

> <PUBCHEM_ISOTOPIC_ATOM_COUNT>
0

> <PUBCHEM_COMPONENT_COUNT>
1

> <PUBCHEM_CACTVS_TAUTO_COUNT>
1

> <PUBCHEM_COORDINATE_TYPE>
1
5
255

> <PUBCHEM_BONDANNOTATIONS>
10  12  8
11  15  8
11  16  8
12  15  8
13  17  8
16  18  8
17  18  8
7  10  8
7  8  8
8  11  8
8  13  8

$$$$
66024900
  -OEChem-11301218282D

 42 44  0     0  0  0  0  0  0999 V2000
    3.8660   -1.7673    0.0000 N   0  0  0  0  0  0  0  0  0  0  0  0
    3.0000   -0.2673    0.0000 C   0  0  0  0  0  0  0  0  0  0  0  0
    2.5000    0.5987    0.0000 C   0  0  0  0  0  0  0  0  0  0  0  0
    2.0000   -0.2673    0.0000 C   0  0  0  0  0  0  0  0  0  0  0  0
    3.8660    0.2327    0.0000 C   0  0  0  0  0  0  0  0  0  0  0  0
    3.0000   -1.2673    0.0000 C   0  0  0  0  0  0  0  0  0  0  0  0
    3.8660    1.2327    0.0000 C   0  0  0  0  0  0  0  0  0  0  0  0
    3.8660   -2.7673    0.0000 C   0  0  0  0  0  0  0  0  0  0  0  0
    4.7320    1.7327    0.0000 C   0  0  0  0  0  0  0  0  0  0  0  0
    3.0000    1.7327    0.0000 C   0  0  0  0  0  0  0  0  0  0  0  0
    4.7320    2.7327    0.0000 C   0  0  0  0  0  0  0  0  0  0  0  0
    4.7320   -3.2673    0.0000 C   0  0  0  0  0  0  0  0  0  0  0  0
    3.0000   -3.2673    0.0000 C   0  0  0  0  0  0  0  0  0  0  0  0
    3.0000    2.7327    0.0000 C   0  0  0  0  0  0  0  0  0  0  0  0
    5.6260    1.1980    0.0000 C   0  0  0  0  0  0  0  0  0  0  0  0
    3.8660    3.2327    0.0000 C   0  0  0  0  0  0  0  0  0  0  0  0
    5.6260    3.2673    0.0000 C   0  0  0  0  0  0  0  0  0  0  0  0
    6.5321    1.7118    0.0000 C   0  0  0  0  0  0  0  0  0  0  0  0
    6.5321    2.7535    0.0000 C   0  0  0  0  0  0  0  0  0  0  0  0
    1.4174   -0.0553    0.0000 H   0  0  0  0  0  0  0  0  0  0  0  0
    1.8923   -0.8779    0.0000 H   0  0  0  0  0  0  0  0  0  0  0  0
    2.9750    0.9972    0.0000 H   0  0  0  0  0  0  0  0  0  0  0  0
    2.0250    0.9972    0.0000 H   0  0  0  0  0  0  0  0  0  0  0  0
    4.0781   -0.3499    0.0000 H   0  0  0  0  0  0  0  0  0  0  0  0
    4.4766    0.3403    0.0000 H   0  0  0  0  0  0  0  0  0  0  0  0
    2.3894   -1.1597    0.0000 H   0  0  0  0  0  0  0  0  0  0  0  0
    2.7880   -1.8499    0.0000 H   0  0  0  0  0  0  0  0  0  0  0  0
    4.4030   -1.4573    0.0000 H   0  0  0  0  0  0  0  0  0  0  0  0
    4.4030   -2.4573    0.0000 H   0  0  0  0  0  0  0  0  0  0  0  0
    2.4631    1.4227    0.0000 H   0  0  0  0  0  0  0  0  0  0  0  0
    4.4220   -3.8043    0.0000 H   0  0  0  0  0  0  0  0  0  0  0  0
    2.6900   -2.7304    0.0000 H   0  0  0  0  0  0  0  0  0  0  0  0
    2.4631   -3.5773    0.0000 H   0  0  0  0  0  0  0  0  0  0  0  0
    3.3100   -3.8043    0.0000 H   0  0  0  0  0  0  0  0  0  0  0  0
    5.2690   -3.5773    0.0000 H   0  0  0  0  0  0  0  0  0  0  0  0
    5.0420   -2.7304    0.0000 H   0  0  0  0  0  0  0  0  0  0  0  0
    2.4631    3.0427    0.0000 H   0  0  0  0  0  0  0  0  0  0  0  0
    5.6188    0.5780    0.0000 H   0  0  0  0  0  0  0  0  0  0  0  0
    3.8660    3.8527    0.0000 H   0  0  0  0  0  0  0  0  0  0  0  0
    5.6188    3.8873    0.0000 H   0  0  0  0  0  0  0  0  0  0  0  0
    7.0678    1.3998    0.0000 H   0  0  0  0  0  0  0  0  0  0  0  0
    7.0678    3.0656    0.0000 H   0  0  0  0  0  0  0  0  0  0  0  0
  1  6  1  0  0  0  0
  1  8  1  0  0  0  0
  1 28  1  0  0  0  0
  2  3  1  0  0  0  0
  2  4  1  0  0  0  0
  2  5  1  0  0  0  0
  2  6  1  0  0  0  0
  3  4  1  0  0  0  0
  3 22  1  0  0  0  0
  3 23  1  0  0  0  0
  4 20  1  0  0  0  0
  4 21  1  0  0  0  0
  5  7  1  0  0  0  0
  5 24  1  0  0  0  0
  5 25  1  0  0  0  0
  6 26  1  0  0  0  0
  6 27  1  0  0  0  0
  7  9  1  0  0  0  0
  7 10  2  0  0  0  0
  8 12  1  0  0  0  0
  8 13  1  0  0  0  0
  8 29  1  0  0  0  0
  9 11  1  0  0  0  0
  9 15  2  0  0  0  0
 10 14  1  0  0  0  0
 10 30  1  0  0  0  0
 11 16  1  0  0  0  0
 11 17  2  0  0  0  0
 12 31  1  0  0  0  0
 12 35  1  0  0  0  0
 12 36  1  0  0  0  0
 13 32  1  0  0  0  0
 13 33  1  0  0  0  0
 13 34  1  0  0  0  0
 14 16  2  0  0  0  0
 14 37  1  0  0  0  0
 15 18  1  0  0  0  0
 15 38  1  0  0  0  0
 16 39  1  0  0  0  0
 17 19  1  0  0  0  0
 17 40  1  0  0  0  0
 18 19  2  0  0  0  0
 18 41  1  0  0  0  0
 19 42  1  0  0  0  0
M  END
> <PUBCHEM_COMPOUND_CID>
66024900

> <PUBCHEM_COMPOUND_CANONICALIZED>
1

> <PUBCHEM_CACTVS_COMPLEXITY>
292

> <PUBCHEM_CACTVS_HBOND_ACCEPTOR>
1

> <PUBCHEM_CACTVS_HBOND_DONOR>
1

> <PUBCHEM_CACTVS_ROTATABLE_BOND>
5

> <PUBCHEM_CACTVS_SUBSKEYS>
AAADceB6AAAAAAAAAAAAAAAAGAAAAAAAAAAwYAAAAAAAAADBUAAAHAAQAAAADijBGAQyAMLAAACAAiBCAAACAAAgAAAIiIAIAIgIICKAkRCEIAAgkACIiAcQgMAPgAACAAAQAAAAAAQAACAAAAAAAAAAAA==

> <PUBCHEM_IUPAC_OPENEYE_NAME>
N-[[1-(1-naphthylmethyl)cyclopropyl]methyl]propan-2-amine

> <PUBCHEM_IUPAC_CAS_NAME>
N-[[1-(1-naphthalenylmethyl)cyclopropyl]methyl]-2-propanamine

> <PUBCHEM_IUPAC_NAME>
N-[[1-(naphthalen-1-ylmethyl)cyclopropyl]methyl]propan-2-amine

> <PUBCHEM_IUPAC_SYSTEMATIC_NAME>
N-[[1-(naphthalen-1-ylmethyl)cyclopropyl]methyl]propan-2-amine

> <PUBCHEM_IUPAC_TRADITIONAL_NAME>
isopropyl-[[1-(1-naphthylmethyl)cyclopropyl]methyl]amine

> <PUBCHEM_IUPAC_INCHI>
InChI=1S/C18H23N/c1-14(2)19-13-18(10-11-18)12-16-8-5-7-15-6-3-4-9-17(15)16/h3-9,14,19H,10-13H2,1-2H3

> <PUBCHEM_IUPAC_INCHIKEY>
JOYYXMFCAJSVHV-UHFFFAOYSA-N

> <PUBCHEM_XLOGP3>
4.8

> <PUBCHEM_EXACT_MASS>
253.18305

> <PUBCHEM_MOLECULAR_FORMULA>
C18H23N

> <PUBCHEM_MOLECULAR_WEIGHT>
253.38192

> <PUBCHEM_OPENEYE_CAN_SMILES>
CC(C)NCC1(CC1)CC2=CC=CC3=CC=CC=C32

> <PUBCHEM_OPENEYE_ISO_SMILES>
CC(C)NCC1(CC1)CC2=CC=CC3=CC=CC=C32

> <PUBCHEM_CACTVS_TPSA>
12

> <PUBCHEM_MONOISOTOPIC_WEIGHT>
253.18305

> <PUBCHEM_TOTAL_CHARGE>
0

> <PUBCHEM_HEAVY_ATOM_COUNT>
19

> <PUBCHEM_ATOM_DEF_STEREO_COUNT>
0

> <PUBCHEM_ATOM_UDEF_STEREO_COUNT>
0

> <PUBCHEM_BOND_DEF_STEREO_COUNT>
0

> <PUBCHEM_BOND_UDEF_STEREO_COUNT>
0

> <PUBCHEM_ISOTOPIC_ATOM_COUNT>
0

> <PUBCHEM_COMPONENT_COUNT>
1

> <PUBCHEM_CACTVS_TAUTO_COUNT>
1

> <PUBCHEM_COORDINATE_TYPE>
1
5
255

> <PUBCHEM_BONDANNOTATIONS>
10  14  8
11  16  8
11  17  8
14  16  8
15  18  8
17  19  8
18  19  8
7  10  8
7  9  8
9  11  8
9  15  8

$$$$
