46400398
  -OEChem-11301217562D

 42 44  0     0  0  0  0  0  0999 V2000
    5.4641    1.3030    0.0000 O   0  0  0  0  0  0  0  0  0  0  0  0
    6.3301   -0.1970    0.0000 N   0  0  0  0  0  0  0  0  0  0  0  0
    9.8744    1.6077    0.0000 N   0  0  0  0  0  0  0  0  0  0  0  0
    4.5981   -0.1970    0.0000 C   0  0  0  0  0  0  0  0  0  0  0  0
    3.7320   -0.6970    0.0000 C   0  0  0  0  0  0  0  0  0  0  0  0
    5.4641    0.3030    0.0000 C   0  0  0  0  0  0  0  0  0  0  0  0
    4.0981    0.6690    0.0000 C   0  0  0  0  0  0  0  0  0  0  0  0
    5.0981   -1.0630    0.0000 C   0  0  0  0  0  0  0  0  0  0  0  0
    7.1962    0.3030    0.0000 C   0  0  0  0  0  0  0  0  0  0  0  0
    8.9282    0.3030    0.0000 C   0  0  0  0  0  0  0  0  0  0  0  0
    8.9282    1.3030    0.0000 C   0  0  0  0  0  0  0  0  0  0  0  0
    2.8660   -0.1970    0.0000 C   0  0  0  0  0  0  0  0  0  0  0  0
    3.7320   -1.6970    0.0000 C   0  0  0  0  0  0  0  0  0  0  0  0
    8.0622   -0.1970    0.0000 C   0  0  0  0  0  0  0  0  0  0  0  0
   10.4580    0.8030    0.0000 C   0  0  0  0  0  0  0  0  0  0  0  0
    7.1962    1.3030    0.0000 C   0  0  0  0  0  0  0  0  0  0  0  0
    9.8744   -0.0018    0.0000 C   0  0  0  0  0  0  0  0  0  0  0  0
    8.0622    1.8030    0.0000 C   0  0  0  0  0  0  0  0  0  0  0  0
    2.0000   -0.6970    0.0000 C   0  0  0  0  0  0  0  0  0  0  0  0
    2.8660   -2.1970    0.0000 C   0  0  0  0  0  0  0  0  0  0  0  0
    2.0000   -1.6970    0.0000 C   0  0  0  0  0  0  0  0  0  0  0  0
   11.4580    0.8030    0.0000 C   0  0  0  0  0  0  0  0  0  0  0  0
    4.6350    0.9790    0.0000 H   0  0  0  0  0  0  0  0  0  0  0  0
    3.7881    1.2059    0.0000 H   0  0  0  0  0  0  0  0  0  0  0  0
    3.5611    0.3590    0.0000 H   0  0  0  0  0  0  0  0  0  0  0  0
    4.5611   -1.3731    0.0000 H   0  0  0  0  0  0  0  0  0  0  0  0
    5.4081   -1.6000    0.0000 H   0  0  0  0  0  0  0  0  0  0  0  0
    5.6350   -0.7531    0.0000 H   0  0  0  0  0  0  0  0  0  0  0  0
    6.3301   -0.8170    0.0000 H   0  0  0  0  0  0  0  0  0  0  0  0
    2.8660    0.4230    0.0000 H   0  0  0  0  0  0  0  0  0  0  0  0
    4.2690   -2.0070    0.0000 H   0  0  0  0  0  0  0  0  0  0  0  0
    8.0622   -0.8170    0.0000 H   0  0  0  0  0  0  0  0  0  0  0  0
   10.0670   -0.5911    0.0000 H   0  0  0  0  0  0  0  0  0  0  0  0
    6.6592    1.6130    0.0000 H   0  0  0  0  0  0  0  0  0  0  0  0
   10.0670    2.1970    0.0000 H   0  0  0  0  0  0  0  0  0  0  0  0
    8.0622    2.4230    0.0000 H   0  0  0  0  0  0  0  0  0  0  0  0
    1.4631   -0.3870    0.0000 H   0  0  0  0  0  0  0  0  0  0  0  0
    2.8660   -2.8170    0.0000 H   0  0  0  0  0  0  0  0  0  0  0  0
    1.4631   -2.0070    0.0000 H   0  0  0  0  0  0  0  0  0  0  0  0
   11.4580    0.1830    0.0000 H   0  0  0  0  0  0  0  0  0  0  0  0
   12.0780    0.8030    0.0000 H   0  0  0  0  0  0  0  0  0  0  0  0
   11.4580    1.4230    0.0000 H   0  0  0  0  0  0  0  0  0  0  0  0
  1  6  2  0  0  0  0
  2  6  1  0  0  0  0
  2  9  1  0  0  0  0
  2 29  1  0  0  0  0
  3 11  1  0  0  0  0
  3 15  1  0  0  0  0
  3 35  1  0  0  0  0
  4  5  1  0  0  0  0
  4  6  1  0  0  0  0
  4  7  1  0  0  0  0
  4  8  1  0  0  0  0
  5 12  2  0  0  0  0
  5 13  1  0  0  0  0
  7 23  1  0  0  0  0
  7 24  1  0  0  0  0
  7 25  1  0  0  0  0
  8 26  1  0  0  0  0
  8 27  1  0  0  0  0
  8 28  1  0  0  0  0
  9 14  2  0  0  0  0
  9 16  1  0  0  0  0
 10 11  2  0  0  0  0
 10 14  1  0  0  0  0
 10 17  1  0  0  0  0
 11 18  1  0  0  0  0
 12 19  1  0  0  0  0
 12 30  1  0  0  0  0
 13 20  2  0  0  0  0
 13 31  1  0  0  0  0
 14 32  1  0  0  0  0
 15 17  2  0  0  0  0
 15 22  1  0  0  0  0
 16 18  2  0  0  0  0
 16 34  1  0  0  0  0
 17 33  1  0  0  0  0
 18 36  1  0  0  0  0
 19 21  2  0  0  0  0
 19 37  1  0  0  0  0
 20 21  1  0  0  0  0
 20 38  1  0  0  0  0
 21 39  1  0  0  0  0
 22 40  1  0  0  0  0
 22 41  1  0  0  0  0
 22 42  1  0  0  0  0
M  END
> <PUBCHEM_COMPOUND_CID>
46400398

> <PUBCHEM_COMPOUND_CANONICALIZED>
1

> <PUBCHEM_CACTVS_COMPLEXITY>
400

> <PUBCHEM_CACTVS_HBOND_ACCEPTOR>
1

> <PUBCHEM_CACTVS_HBOND_DONOR>
2

> <PUBCHEM_CACTVS_ROTATABLE_BOND>
3

> <PUBCHEM_CACTVS_SUBSKEYS>
AAADceB7IAAAAAAAAAAAAAAAAAAAAWAAAAAwYAAAAAAAAFgB9AAAHgAQAAAADgiBngAywPLJkACoAyVyVACCgCAhAiAImSEwZJgIIPLAlZGEIAhglADIyAcYiMCPgACAQAACAAAAAQCAAAQAAAAAAAAAAA==

> <PUBCHEM_IUPAC_OPENEYE_NAME>
2-methyl-N-(2-methyl-1H-indol-5-yl)-2-phenyl-propanamide

> <PUBCHEM_IUPAC_CAS_NAME>
2-methyl-N-(2-methyl-1H-indol-5-yl)-2-phenylpropanamide

> <PUBCHEM_IUPAC_NAME>
2-methyl-N-(2-methyl-1H-indol-5-yl)-2-phenylpropanamide

> <PUBCHEM_IUPAC_SYSTEMATIC_NAME>
2-methyl-N-(2-methyl-1H-indol-5-yl)-2-phenyl-propanamide

> <PUBCHEM_IUPAC_TRADITIONAL_NAME>
2-methyl-N-(2-methyl-1H-indol-5-yl)-2-phenyl-propionamide

> <PUBCHEM_IUPAC_INCHI>
InChI=1S/C19H20N2O/c1-13-11-14-12-16(9-10-17(14)20-13)21-18(22)19(2,3)15-7-5-4-6-8-15/h4-12,20H,1-3H3,(H,21,22)

> <PUBCHEM_IUPAC_INCHIKEY>
WMDNGZKNQMLXFO-UHFFFAOYSA-N

> <PUBCHEM_XLOGP3>
3.7

> <PUBCHEM_EXACT_MASS>
292.157563

> <PUBCHEM_MOLECULAR_FORMULA>
C19H20N2O

> <PUBCHEM_MOLECULAR_WEIGHT>
292.3749

> <PUBCHEM_OPENEYE_CAN_SMILES>
CC1=CC2=C(N1)C=CC(=C2)NC(=O)C(C)(C)C3=CC=CC=C3

> <PUBCHEM_OPENEYE_ISO_SMILES>
CC1=CC2=C(N1)C=CC(=C2)NC(=O)C(C)(C)C3=CC=CC=C3

> <PUBCHEM_CACTVS_TPSA>
44.9

> <PUBCHEM_MONOISOTOPIC_WEIGHT>
292.157563

> <PUBCHEM_TOTAL_CHARGE>
0

> <PUBCHEM_HEAVY_ATOM_COUNT>
22

> <PUBCHEM_ATOM_DEF_STEREO_COUNT>
0

> <PUBCHEM_ATOM_UDEF_STEREO_COUNT>
0

> <PUBCHEM_BOND_DEF_STEREO_COUNT>
0

> <PUBCHEM_BOND_UDEF_STEREO_COUNT>
0

> <PUBCHEM_ISOTOPIC_ATOM_COUNT>
0

> <PUBCHEM_COMPONENT_COUNT>
1

> <PUBCHEM_CACTVS_TAUTO_COUNT>
2

> <PUBCHEM_COORDINATE_TYPE>
1
5
255

> <PUBCHEM_BONDANNOTATIONS>
10  11  8
10  14  8
10  17  8
11  18  8
12  19  8
13  20  8
15  17  8
16  18  8
19  21  8
20  21  8
3  11  8
3  15  8
5  12  8
5  13  8
9  14  8
9  16  8

$$$$
46400456
  -OEChem-11301217562D

 39 41  0     0  0  0  0  0  0999 V2000
    4.5981    1.0530    0.0000 O   0  0  0  0  0  0  0  0  0  0  0  0
    5.4641   -0.4470    0.0000 N   0  0  0  0  0  0  0  0  0  0  0  0
    9.0084    1.3577    0.0000 N   0  0  0  0  0  0  0  0  0  0  0  0
    3.7320   -0.4470    0.0000 C   0  0  0  0  0  0  0  0  0  0  0  0
    2.8660    0.0530    0.0000 C   0  0  0  0  0  0  0  0  0  0  0  0
    3.7320   -1.4470    0.0000 C   0  0  0  0  0  0  0  0  0  0  0  0
    2.0000   -0.4470    0.0000 C   0  0  0  0  0  0  0  0  0  0  0  0
    2.8660   -1.9470    0.0000 C   0  0  0  0  0  0  0  0  0  0  0  0
    2.0000   -1.4470    0.0000 C   0  0  0  0  0  0  0  0  0  0  0  0
    4.5981    0.0530    0.0000 C   0  0  0  0  0  0  0  0  0  0  0  0
    6.3301    0.0530    0.0000 C   0  0  0  0  0  0  0  0  0  0  0  0
    8.0622    0.0530    0.0000 C   0  0  0  0  0  0  0  0  0  0  0  0
    7.1962   -0.4470    0.0000 C   0  0  0  0  0  0  0  0  0  0  0  0
    8.0622    1.0530    0.0000 C   0  0  0  0  0  0  0  0  0  0  0  0
    6.3301    1.0530    0.0000 C   0  0  0  0  0  0  0  0  0  0  0  0
    7.1962    1.5530    0.0000 C   0  0  0  0  0  0  0  0  0  0  0  0
    9.0084   -0.2518    0.0000 C   0  0  0  0  0  0  0  0  0  0  0  0
    9.5920    0.5530    0.0000 C   0  0  0  0  0  0  0  0  0  0  0  0
   10.5920    0.5530    0.0000 C   0  0  0  0  0  0  0  0  0  0  0  0
    3.7320    0.1730    0.0000 H   0  0  0  0  0  0  0  0  0  0  0  0
    3.9441   -2.0296    0.0000 H   0  0  0  0  0  0  0  0  0  0  0  0
    4.3426   -1.3394    0.0000 H   0  0  0  0  0  0  0  0  0  0  0  0
    3.2646    0.5279    0.0000 H   0  0  0  0  0  0  0  0  0  0  0  0
    2.4675    0.5279    0.0000 H   0  0  0  0  0  0  0  0  0  0  0  0
    2.4675   -2.4220    0.0000 H   0  0  0  0  0  0  0  0  0  0  0  0
    3.2646   -2.4220    0.0000 H   0  0  0  0  0  0  0  0  0  0  0  0
    1.7880    0.1356    0.0000 H   0  0  0  0  0  0  0  0  0  0  0  0
    1.3894   -0.5547    0.0000 H   0  0  0  0  0  0  0  0  0  0  0  0
    1.3894   -1.3394    0.0000 H   0  0  0  0  0  0  0  0  0  0  0  0
    1.7880   -2.0296    0.0000 H   0  0  0  0  0  0  0  0  0  0  0  0
    5.4641   -1.0670    0.0000 H   0  0  0  0  0  0  0  0  0  0  0  0
    7.1962   -1.0670    0.0000 H   0  0  0  0  0  0  0  0  0  0  0  0
    5.7932    1.3630    0.0000 H   0  0  0  0  0  0  0  0  0  0  0  0
    7.1962    2.1730    0.0000 H   0  0  0  0  0  0  0  0  0  0  0  0
    9.2010   -0.8411    0.0000 H   0  0  0  0  0  0  0  0  0  0  0  0
    9.2010    1.9470    0.0000 H   0  0  0  0  0  0  0  0  0  0  0  0
   10.5920   -0.0670    0.0000 H   0  0  0  0  0  0  0  0  0  0  0  0
   11.2120    0.5530    0.0000 H   0  0  0  0  0  0  0  0  0  0  0  0
   10.5920    1.1730    0.0000 H   0  0  0  0  0  0  0  0  0  0  0  0
  1 10  2  0  0  0  0
  2 10  1  0  0  0  0
  2 11  1  0  0  0  0
  2 31  1  0  0  0  0
  3 14  1  0  0  0  0
  3 18  1  0  0  0  0
  3 36  1  0  0  0  0
  4  5  1  0  0  0  0
  4  6  1  0  0  0  0
  4 10  1  0  0  0  0
  4 20  1  0  0  0  0
  5  7  1  0  0  0  0
  5 23  1  0  0  0  0
  5 24  1  0  0  0  0
  6  8  1  0  0  0  0
  6 21  1  0  0  0  0
  6 22  1  0  0  0  0
  7  9  1  0  0  0  0
  7 27  1  0  0  0  0
  7 28  1  0  0  0  0
  8  9  1  0  0  0  0
  8 25  1  0  0  0  0
  8 26  1  0  0  0  0
  9 29  1  0  0  0  0
  9 30  1  0  0  0  0
 11 13  2  0  0  0  0
 11 15  1  0  0  0  0
 12 13  1  0  0  0  0
 12 14  2  0  0  0  0
 12 17  1  0  0  0  0
 13 32  1  0  0  0  0
 14 16  1  0  0  0  0
 15 16  2  0  0  0  0
 15 33  1  0  0  0  0
 16 34  1  0  0  0  0
 17 18  2  0  0  0  0
 17 35  1  0  0  0  0
 18 19  1  0  0  0  0
 19 37  1  0  0  0  0
 19 38  1  0  0  0  0
 19 39  1  0  0  0  0
M  END
> <PUBCHEM_COMPOUND_CID>
46400456

> <PUBCHEM_COMPOUND_CANONICALIZED>
1

> <PUBCHEM_CACTVS_COMPLEXITY>
325

> <PUBCHEM_CACTVS_HBOND_ACCEPTOR>
1

> <PUBCHEM_CACTVS_HBOND_DONOR>
2

> <PUBCHEM_CACTVS_ROTATABLE_BOND>
2

> <PUBCHEM_CACTVS_SUBSKEYS>
AAADceB7IAAAAAAAAAAAAAAAAAAAAWAAAAAwYAAAAAAAAFgB8AAAHgAQAAAADQiBngAywPLJkACoAyVyVACCgCAhAiAImSEwZJgIIPLAkZGEIAhglADIyAcYiICOAACAQAACAAAAAQCAAAQAAAAAAAAAAA==

> <PUBCHEM_IUPAC_OPENEYE_NAME>
N-(2-methyl-1H-indol-5-yl)cyclohexanecarboxamide

> <PUBCHEM_IUPAC_CAS_NAME>
N-(2-methyl-1H-indol-5-yl)cyclohexanecarboxamide

> <PUBCHEM_IUPAC_NAME>
N-(2-methyl-1H-indol-5-yl)cyclohexanecarboxamide

> <PUBCHEM_IUPAC_SYSTEMATIC_NAME>
N-(2-methyl-1H-indol-5-yl)cyclohexanecarboxamide

> <PUBCHEM_IUPAC_TRADITIONAL_NAME>
N-(2-methyl-1H-indol-5-yl)cyclohexanecarboxamide

> <PUBCHEM_IUPAC_INCHI>
InChI=1S/C16H20N2O/c1-11-9-13-10-14(7-8-15(13)17-11)18-16(19)12-5-3-2-4-6-12/h7-10,12,17H,2-6H2,1H3,(H,18,19)

> <PUBCHEM_IUPAC_INCHIKEY>
VFQGCSZINPSFBG-UHFFFAOYSA-N

> <PUBCHEM_XLOGP3>
3.3

> <PUBCHEM_EXACT_MASS>
256.157563

> <PUBCHEM_MOLECULAR_FORMULA>
C16H20N2O

> <PUBCHEM_MOLECULAR_WEIGHT>
256.3428

> <PUBCHEM_OPENEYE_CAN_SMILES>
CC1=CC2=C(N1)C=CC(=C2)NC(=O)C3CCCCC3

> <PUBCHEM_OPENEYE_ISO_SMILES>
CC1=CC2=C(N1)C=CC(=C2)NC(=O)C3CCCCC3

> <PUBCHEM_CACTVS_TPSA>
44.9

> <PUBCHEM_MONOISOTOPIC_WEIGHT>
256.157563

> <PUBCHEM_TOTAL_CHARGE>
0

> <PUBCHEM_HEAVY_ATOM_COUNT>
19

> <PUBCHEM_ATOM_DEF_STEREO_COUNT>
0

> <PUBCHEM_ATOM_UDEF_STEREO_COUNT>
0

> <PUBCHEM_BOND_DEF_STEREO_COUNT>
0

> <PUBCHEM_BOND_UDEF_STEREO_COUNT>
0

> <PUBCHEM_ISOTOPIC_ATOM_COUNT>
0

> <PUBCHEM_COMPONENT_COUNT>
1

> <PUBCHEM_CACTVS_TAUTO_COUNT>
3

> <PUBCHEM_COORDINATE_TYPE>
1
5
255

> <PUBCHEM_BONDANNOTATIONS>
11  13  8
11  15  8
12  13  8
12  14  8
12  17  8
14  16  8
15  16  8
17  18  8
3  14  8
3  18  8

$$$$
46414397
  -OEChem-11301217572D

 32 33  0     0  0  0  0  0  0999 V2000
    2.0000   -1.1012    0.0000 I   0  0  0  0  0  0  0  0  0  0  0  0
    2.8660    0.3988    0.0000 O   0  0  0  0  0  0  0  0  0  0  0  0
    4.5981    0.3988    0.0000 N   0  0  0  0  0  0  0  0  0  0  0  0
    5.4641    1.8988    0.0000 C   0  0  0  0  0  0  0  0  0  0  0  0
    5.5686    2.8933    0.0000 C   0  0  0  0  0  0  0  0  0  0  0  0
    6.3776    1.4921    0.0000 C   0  0  0  0  0  0  0  0  0  0  0  0
    6.5468    3.1012    0.0000 C   0  0  0  0  0  0  0  0  0  0  0  0
    7.0468    2.2352    0.0000 C   0  0  0  0  0  0  0  0  0  0  0  0
    4.5981    1.3988    0.0000 C   0  0  0  0  0  0  0  0  0  0  0  0
    3.7320   -0.1012    0.0000 C   0  0  0  0  0  0  0  0  0  0  0  0
    3.7320   -1.1012    0.0000 C   0  0  0  0  0  0  0  0  0  0  0  0
    2.8660   -1.6012    0.0000 C   0  0  0  0  0  0  0  0  0  0  0  0
    4.5981   -1.6012    0.0000 C   0  0  0  0  0  0  0  0  0  0  0  0
    2.8660   -2.6012    0.0000 C   0  0  0  0  0  0  0  0  0  0  0  0
    4.5981   -2.6012    0.0000 C   0  0  0  0  0  0  0  0  0  0  0  0
    3.7320   -3.1012    0.0000 C   0  0  0  0  0  0  0  0  0  0  0  0
    4.9441    2.2365    0.0000 H   0  0  0  0  0  0  0  0  0  0  0  0
    5.5038    3.5099    0.0000 H   0  0  0  0  0  0  0  0  0  0  0  0
    4.9486    2.8933    0.0000 H   0  0  0  0  0  0  0  0  0  0  0  0
    6.0677    0.9551    0.0000 H   0  0  0  0  0  0  0  0  0  0  0  0
    6.8792    1.1276    0.0000 H   0  0  0  0  0  0  0  0  0  0  0  0
    7.1132    3.3534    0.0000 H   0  0  0  0  0  0  0  0  0  0  0  0
    6.3552    3.6909    0.0000 H   0  0  0  0  0  0  0  0  0  0  0  0
    7.4616    1.7744    0.0000 H   0  0  0  0  0  0  0  0  0  0  0  0
    7.5484    2.5996    0.0000 H   0  0  0  0  0  0  0  0  0  0  0  0
    4.3860    1.9814    0.0000 H   0  0  0  0  0  0  0  0  0  0  0  0
    3.9875    1.2911    0.0000 H   0  0  0  0  0  0  0  0  0  0  0  0
    5.1350    0.0888    0.0000 H   0  0  0  0  0  0  0  0  0  0  0  0
    5.1350   -1.2912    0.0000 H   0  0  0  0  0  0  0  0  0  0  0  0
    2.3291   -2.9112    0.0000 H   0  0  0  0  0  0  0  0  0  0  0  0
    5.1350   -2.9112    0.0000 H   0  0  0  0  0  0  0  0  0  0  0  0
    3.7320   -3.7212    0.0000 H   0  0  0  0  0  0  0  0  0  0  0  0
  1 12  1  0  0  0  0
  2 10  2  0  0  0  0
  3  9  1  0  0  0  0
  3 10  1  0  0  0  0
  3 28  1  0  0  0  0
  4  5  1  0  0  0  0
  4  6  1  0  0  0  0
  4  9  1  0  0  0  0
  4 17  1  0  0  0  0
  5  7  1  0  0  0  0
  5 18  1  0  0  0  0
  5 19  1  0  0  0  0
  6  8  1  0  0  0  0
  6 20  1  0  0  0  0
  6 21  1  0  0  0  0
  7  8  1  0  0  0  0
  7 22  1  0  0  0  0
  7 23  1  0  0  0  0
  8 24  1  0  0  0  0
  8 25  1  0  0  0  0
  9 26  1  0  0  0  0
  9 27  1  0  0  0  0
 10 11  1  0  0  0  0
 11 12  1  0  0  0  0
 11 13  2  0  0  0  0
 12 14  2  0  0  0  0
 13 15  1  0  0  0  0
 13 29  1  0  0  0  0
 14 16  1  0  0  0  0
 14 30  1  0  0  0  0
 15 16  2  0  0  0  0
 15 31  1  0  0  0  0
 16 32  1  0  0  0  0
M  END
> <PUBCHEM_COMPOUND_CID>
46414397

> <PUBCHEM_COMPOUND_CANONICALIZED>
1

> <PUBCHEM_CACTVS_COMPLEXITY>
238

> <PUBCHEM_CACTVS_HBOND_ACCEPTOR>
1

> <PUBCHEM_CACTVS_HBOND_DONOR>
1

> <PUBCHEM_CACTVS_ROTATABLE_BOND>
3

> <PUBCHEM_CACTVS_SUBSKEYS>
AAADceByIAAAAgAAAAAAAAAAAAAAAYAAAAAwAAAAAAAAAAABAAAAHgAwAAAADQDDmAQwAILAAACIAiFSEACCAAAkAAAIiIEIBMgIIDKAlRGEIQhglgCIiYcYiACOAAAAAAAAAAAAAAAAAAAAAAAAAAAAAA==

> <PUBCHEM_IUPAC_OPENEYE_NAME>
N-(cyclopentylmethyl)-2-iodo-benzamide

> <PUBCHEM_IUPAC_CAS_NAME>
N-(cyclopentylmethyl)-2-iodobenzamide

> <PUBCHEM_IUPAC_NAME>
N-(cyclopentylmethyl)-2-iodobenzamide

> <PUBCHEM_IUPAC_SYSTEMATIC_NAME>
N-(cyclopentylmethyl)-2-iodanyl-benzamide

> <PUBCHEM_IUPAC_TRADITIONAL_NAME>
N-(cyclopentylmethyl)-2-iodo-benzamide

> <PUBCHEM_IUPAC_INCHI>
InChI=1S/C13H16INO/c14-12-8-4-3-7-11(12)13(16)15-9-10-5-1-2-6-10/h3-4,7-8,10H,1-2,5-6,9H2,(H,15,16)

> <PUBCHEM_IUPAC_INCHIKEY>
GHYWGNNREPHNEG-UHFFFAOYSA-N

> <PUBCHEM_XLOGP3>
3

> <PUBCHEM_EXACT_MASS>
329.027662

> <PUBCHEM_MOLECULAR_FORMULA>
C13H16INO

> <PUBCHEM_MOLECULAR_WEIGHT>
329.17671

> <PUBCHEM_OPENEYE_CAN_SMILES>
C1CCC(C1)CNC(=O)C2=CC=CC=C2I

> <PUBCHEM_OPENEYE_ISO_SMILES>
C1CCC(C1)CNC(=O)C2=CC=CC=C2I

> <PUBCHEM_CACTVS_TPSA>
29.1

> <PUBCHEM_MONOISOTOPIC_WEIGHT>
329.027662

> <PUBCHEM_TOTAL_CHARGE>
0

> <PUBCHEM_HEAVY_ATOM_COUNT>
16

> <PUBCHEM_ATOM_DEF_STEREO_COUNT>
0

> <PUBCHEM_ATOM_UDEF_STEREO_COUNT>
0

> <PUBCHEM_BOND_DEF_STEREO_COUNT>
0

> <PUBCHEM_BOND_UDEF_STEREO_COUNT>
0

> <PUBCHEM_ISOTOPIC_ATOM_COUNT>
0

> <PUBCHEM_COMPONENT_COUNT>
1

> <PUBCHEM_CACTVS_TAUTO_COUNT>
2

> <PUBCHEM_COORDINATE_TYPE>
1
5
255

> <PUBCHEM_BONDANNOTATIONS>
11  12  8
11  13  8
12  14  8
13  15  8
14  16  8
15  16  8

$$$$
