61325336
  -OEChem-11301218192D

 33 34  0     0  0  0  0  0  0999 V2000
    4.5981   -0.7640    0.0000 N   0  0  0  0  0  0  0  0  0  0  0  0
    8.1424    1.0407    0.0000 N   0  0  0  0  0  0  0  0  0  0  0  0
    2.8660   -0.7640    0.0000 C   0  0  0  0  0  0  0  0  0  0  0  0
    3.7320   -0.2640    0.0000 C   0  0  0  0  0  0  0  0  0  0  0  0
    2.0000   -1.2640    0.0000 C   0  0  0  0  0  0  0  0  0  0  0  0
    2.3660    0.1020    0.0000 C   0  0  0  0  0  0  0  0  0  0  0  0
    3.3660   -1.6300    0.0000 C   0  0  0  0  0  0  0  0  0  0  0  0
    5.4641   -0.2640    0.0000 C   0  0  0  0  0  0  0  0  0  0  0  0
    7.1962   -0.2640    0.0000 C   0  0  0  0  0  0  0  0  0  0  0  0
    6.3301   -0.7640    0.0000 C   0  0  0  0  0  0  0  0  0  0  0  0
    7.1962    0.7360    0.0000 C   0  0  0  0  0  0  0  0  0  0  0  0
    5.4641    0.7360    0.0000 C   0  0  0  0  0  0  0  0  0  0  0  0
    6.3301    1.2360    0.0000 C   0  0  0  0  0  0  0  0  0  0  0  0
    8.1424   -0.5687    0.0000 C   0  0  0  0  0  0  0  0  0  0  0  0
    8.7260    0.2360    0.0000 C   0  0  0  0  0  0  0  0  0  0  0  0
    4.1306    0.2109    0.0000 H   0  0  0  0  0  0  0  0  0  0  0  0
    3.3335    0.2109    0.0000 H   0  0  0  0  0  0  0  0  0  0  0  0
    1.6900   -0.7271    0.0000 H   0  0  0  0  0  0  0  0  0  0  0  0
    2.8291   -1.9400    0.0000 H   0  0  0  0  0  0  0  0  0  0  0  0
    3.6760   -2.1670    0.0000 H   0  0  0  0  0  0  0  0  0  0  0  0
    3.9030   -1.3200    0.0000 H   0  0  0  0  0  0  0  0  0  0  0  0
    2.9030    0.4120    0.0000 H   0  0  0  0  0  0  0  0  0  0  0  0
    2.0560    0.6389    0.0000 H   0  0  0  0  0  0  0  0  0  0  0  0
    1.8291   -0.2080    0.0000 H   0  0  0  0  0  0  0  0  0  0  0  0
    1.4631   -1.5740    0.0000 H   0  0  0  0  0  0  0  0  0  0  0  0
    2.3100   -1.8010    0.0000 H   0  0  0  0  0  0  0  0  0  0  0  0
    4.5981   -1.3840    0.0000 H   0  0  0  0  0  0  0  0  0  0  0  0
    6.3301   -1.3840    0.0000 H   0  0  0  0  0  0  0  0  0  0  0  0
    4.9272    1.0460    0.0000 H   0  0  0  0  0  0  0  0  0  0  0  0
    6.3301    1.8560    0.0000 H   0  0  0  0  0  0  0  0  0  0  0  0
    8.3350   -1.1581    0.0000 H   0  0  0  0  0  0  0  0  0  0  0  0
    8.3350    1.6300    0.0000 H   0  0  0  0  0  0  0  0  0  0  0  0
    9.3460    0.2360    0.0000 H   0  0  0  0  0  0  0  0  0  0  0  0
  1  4  1  0  0  0  0
  1  8  1  0  0  0  0
  1 27  1  0  0  0  0
  2 11  1  0  0  0  0
  2 15  1  0  0  0  0
  2 32  1  0  0  0  0
  3  4  1  0  0  0  0
  3  5  1  0  0  0  0
  3  6  1  0  0  0  0
  3  7  1  0  0  0  0
  4 16  1  0  0  0  0
  4 17  1  0  0  0  0
  5 18  1  0  0  0  0
  5 25  1  0  0  0  0
  5 26  1  0  0  0  0
  6 22  1  0  0  0  0
  6 23  1  0  0  0  0
  6 24  1  0  0  0  0
  7 19  1  0  0  0  0
  7 20  1  0  0  0  0
  7 21  1  0  0  0  0
  8 10  2  0  0  0  0
  8 12  1  0  0  0  0
  9 10  1  0  0  0  0
  9 11  2  0  0  0  0
  9 14  1  0  0  0  0
 10 28  1  0  0  0  0
 11 13  1  0  0  0  0
 12 13  2  0  0  0  0
 12 29  1  0  0  0  0
 13 30  1  0  0  0  0
 14 15  2  0  0  0  0
 14 31  1  0  0  0  0
 15 33  1  0  0  0  0
M  END
> <PUBCHEM_COMPOUND_CID>
61325336

> <PUBCHEM_COMPOUND_CANONICALIZED>
1

> <PUBCHEM_CACTVS_COMPLEXITY>
207

> <PUBCHEM_CACTVS_HBOND_ACCEPTOR>
1

> <PUBCHEM_CACTVS_HBOND_DONOR>
2

> <PUBCHEM_CACTVS_ROTATABLE_BOND>
3

> <PUBCHEM_CACTVS_SUBSKEYS>
AAADceBzAAAAAAAAAAAAAAAAAAAAAWAAAAAwAAAAAAAAAFgB8AAAHAAQAAAADgjBHgQ+wPLJkACgAzRnRACCgCAxAiAI2aA4ZJgIIOLAkZGEIAhgkADIyAcQgIAOAACAQAACAAAAAQCAAAQAAAAAAAAAAA==

> <PUBCHEM_IUPAC_OPENEYE_NAME>
N-(2,2-dimethylpropyl)-1H-indol-5-amine

> <PUBCHEM_IUPAC_CAS_NAME>
N-(2,2-dimethylpropyl)-1H-indol-5-amine

> <PUBCHEM_IUPAC_NAME>
N-(2,2-dimethylpropyl)-1H-indol-5-amine

> <PUBCHEM_IUPAC_SYSTEMATIC_NAME>
N-(2,2-dimethylpropyl)-1H-indol-5-amine

> <PUBCHEM_IUPAC_TRADITIONAL_NAME>
1H-indol-5-yl(neopentyl)amine

> <PUBCHEM_IUPAC_INCHI>
InChI=1S/C13H18N2/c1-13(2,3)9-15-11-4-5-12-10(8-11)6-7-14-12/h4-8,14-15H,9H2,1-3H3

> <PUBCHEM_IUPAC_INCHIKEY>
YTWJVQSMKYPZEW-UHFFFAOYSA-N

> <PUBCHEM_XLOGP3>
4

> <PUBCHEM_EXACT_MASS>
202.146999

> <PUBCHEM_MOLECULAR_FORMULA>
C13H18N2

> <PUBCHEM_MOLECULAR_WEIGHT>
202.29542

> <PUBCHEM_OPENEYE_CAN_SMILES>
CC(C)(C)CNC1=CC2=C(C=C1)NC=C2

> <PUBCHEM_OPENEYE_ISO_SMILES>
CC(C)(C)CNC1=CC2=C(C=C1)NC=C2

> <PUBCHEM_CACTVS_TPSA>
27.8

> <PUBCHEM_MONOISOTOPIC_WEIGHT>
202.146999

> <PUBCHEM_TOTAL_CHARGE>
0

> <PUBCHEM_HEAVY_ATOM_COUNT>
15

> <PUBCHEM_ATOM_DEF_STEREO_COUNT>
0

> <PUBCHEM_ATOM_UDEF_STEREO_COUNT>
0

> <PUBCHEM_BOND_DEF_STEREO_COUNT>
0

> <PUBCHEM_BOND_UDEF_STEREO_COUNT>
0

> <PUBCHEM_ISOTOPIC_ATOM_COUNT>
0

> <PUBCHEM_COMPONENT_COUNT>
1

> <PUBCHEM_CACTVS_TAUTO_COUNT>
1

> <PUBCHEM_COORDINATE_TYPE>
1
5
255

> <PUBCHEM_BONDANNOTATIONS>
11  13  8
12  13  8
14  15  8
2  11  8
2  15  8
8  10  8
8  12  8
9  10  8
9  11  8
9  14  8

$$$$
61325747
  -OEChem-11301218192D

 35 35  0     0  0  0  0  0  0999 V2000
    3.7320    0.7500    0.0000 N   0  0  0  0  0  0  0  0  0  0  0  0
    4.5981    2.2500    0.0000 C   0  0  0  0  0  0  0  0  0  0  0  0
    4.5981    1.2500    0.0000 C   0  0  0  0  0  0  0  0  0  0  0  0
    4.5981    3.2500    0.0000 C   0  0  0  0  0  0  0  0  0  0  0  0
    5.5981    2.2500    0.0000 C   0  0  0  0  0  0  0  0  0  0  0  0
    3.5981    2.2500    0.0000 C   0  0  0  0  0  0  0  0  0  0  0  0
    3.7320   -0.2500    0.0000 C   0  0  0  0  0  0  0  0  0  0  0  0
    2.8660   -0.7500    0.0000 C   0  0  0  0  0  0  0  0  0  0  0  0
    2.8660   -1.7500    0.0000 C   0  0  0  0  0  0  0  0  0  0  0  0
    4.5981   -0.7500    0.0000 C   0  0  0  0  0  0  0  0  0  0  0  0
    2.0000   -2.2500    0.0000 C   0  0  0  0  0  0  0  0  0  0  0  0
    3.7320   -2.2500    0.0000 C   0  0  0  0  0  0  0  0  0  0  0  0
    4.5981   -1.7500    0.0000 C   0  0  0  0  0  0  0  0  0  0  0  0
    2.0000   -3.2500    0.0000 C   0  0  0  0  0  0  0  0  0  0  0  0
    4.8101    0.6674    0.0000 H   0  0  0  0  0  0  0  0  0  0  0  0
    5.2087    1.3577    0.0000 H   0  0  0  0  0  0  0  0  0  0  0  0
    5.2181    3.2500    0.0000 H   0  0  0  0  0  0  0  0  0  0  0  0
    4.5981    3.8700    0.0000 H   0  0  0  0  0  0  0  0  0  0  0  0
    3.9781    3.2500    0.0000 H   0  0  0  0  0  0  0  0  0  0  0  0
    5.5981    1.6300    0.0000 H   0  0  0  0  0  0  0  0  0  0  0  0
    6.2181    2.2500    0.0000 H   0  0  0  0  0  0  0  0  0  0  0  0
    5.5981    2.8700    0.0000 H   0  0  0  0  0  0  0  0  0  0  0  0
    3.5981    2.8700    0.0000 H   0  0  0  0  0  0  0  0  0  0  0  0
    2.9781    2.2500    0.0000 H   0  0  0  0  0  0  0  0  0  0  0  0
    3.5981    1.6300    0.0000 H   0  0  0  0  0  0  0  0  0  0  0  0
    3.1951    1.0600    0.0000 H   0  0  0  0  0  0  0  0  0  0  0  0
    2.3291   -0.4400    0.0000 H   0  0  0  0  0  0  0  0  0  0  0  0
    5.1350   -0.4400    0.0000 H   0  0  0  0  0  0  0  0  0  0  0  0
    1.7880   -1.6674    0.0000 H   0  0  0  0  0  0  0  0  0  0  0  0
    1.3894   -2.3577    0.0000 H   0  0  0  0  0  0  0  0  0  0  0  0
    3.7320   -2.8700    0.0000 H   0  0  0  0  0  0  0  0  0  0  0  0
    5.1350   -2.0600    0.0000 H   0  0  0  0  0  0  0  0  0  0  0  0
    1.3800   -3.2500    0.0000 H   0  0  0  0  0  0  0  0  0  0  0  0
    2.0000   -3.8700    0.0000 H   0  0  0  0  0  0  0  0  0  0  0  0
    2.6200   -3.2500    0.0000 H   0  0  0  0  0  0  0  0  0  0  0  0
  1  3  1  0  0  0  0
  1  7  1  0  0  0  0
  1 26  1  0  0  0  0
  2  3  1  0  0  0  0
  2  4  1  0  0  0  0
  2  5  1  0  0  0  0
  2  6  1  0  0  0  0
  3 15  1  0  0  0  0
  3 16  1  0  0  0  0
  4 17  1  0  0  0  0
  4 18  1  0  0  0  0
  4 19  1  0  0  0  0
  5 20  1  0  0  0  0
  5 21  1  0  0  0  0
  5 22  1  0  0  0  0
  6 23  1  0  0  0  0
  6 24  1  0  0  0  0
  6 25  1  0  0  0  0
  7  8  1  0  0  0  0
  7 10  2  0  0  0  0
  8  9  2  0  0  0  0
  8 27  1  0  0  0  0
  9 11  1  0  0  0  0
  9 12  1  0  0  0  0
 10 13  1  0  0  0  0
 10 28  1  0  0  0  0
 11 14  1  0  0  0  0
 11 29  1  0  0  0  0
 11 30  1  0  0  0  0
 12 13  2  0  0  0  0
 12 31  1  0  0  0  0
 13 32  1  0  0  0  0
 14 33  1  0  0  0  0
 14 34  1  0  0  0  0
 14 35  1  0  0  0  0
M  END
> <PUBCHEM_COMPOUND_CID>
61325747

> <PUBCHEM_COMPOUND_CANONICALIZED>
1

> <PUBCHEM_CACTVS_COMPLEXITY>
157

> <PUBCHEM_CACTVS_HBOND_ACCEPTOR>
1

> <PUBCHEM_CACTVS_HBOND_DONOR>
1

> <PUBCHEM_CACTVS_ROTATABLE_BOND>
4

> <PUBCHEM_CACTVS_SUBSKEYS>
AAADceByAAAAAAAAAAAAAAAAAAAAAAAAAAAwAAAAAAAAAAABAAAAHAAQAAAADgjBGAQywILAAACAAiRCQACCAAAhAgAIiIAIZIgIICLAkZGEIAhgkADIyAcQgIAOAAAAQAAAAAAAAACAAAAAAAAAAAAAAA==

> <PUBCHEM_IUPAC_OPENEYE_NAME>
N-(2,2-dimethylpropyl)-3-ethyl-aniline

> <PUBCHEM_IUPAC_CAS_NAME>
N-(2,2-dimethylpropyl)-3-ethylaniline

> <PUBCHEM_IUPAC_NAME>
N-(2,2-dimethylpropyl)-3-ethylaniline

> <PUBCHEM_IUPAC_SYSTEMATIC_NAME>
N-(2,2-dimethylpropyl)-3-ethyl-aniline

> <PUBCHEM_IUPAC_TRADITIONAL_NAME>
(3-ethylphenyl)-neopentyl-amine

> <PUBCHEM_IUPAC_INCHI>
InChI=1S/C13H21N/c1-5-11-7-6-8-12(9-11)14-10-13(2,3)4/h6-9,14H,5,10H2,1-4H3

> <PUBCHEM_IUPAC_INCHIKEY>
OKGHPJKAQBZFJX-UHFFFAOYSA-N

> <PUBCHEM_XLOGP3>
4.5

> <PUBCHEM_EXACT_MASS>
191.1674

> <PUBCHEM_MOLECULAR_FORMULA>
C13H21N

> <PUBCHEM_MOLECULAR_WEIGHT>
191.31254

> <PUBCHEM_OPENEYE_CAN_SMILES>
CCC1=CC(=CC=C1)NCC(C)(C)C

> <PUBCHEM_OPENEYE_ISO_SMILES>
CCC1=CC(=CC=C1)NCC(C)(C)C

> <PUBCHEM_CACTVS_TPSA>
12

> <PUBCHEM_MONOISOTOPIC_WEIGHT>
191.1674

> <PUBCHEM_TOTAL_CHARGE>
0

> <PUBCHEM_HEAVY_ATOM_COUNT>
14

> <PUBCHEM_ATOM_DEF_STEREO_COUNT>
0

> <PUBCHEM_ATOM_UDEF_STEREO_COUNT>
0

> <PUBCHEM_BOND_DEF_STEREO_COUNT>
0

> <PUBCHEM_BOND_UDEF_STEREO_COUNT>
0

> <PUBCHEM_ISOTOPIC_ATOM_COUNT>
0

> <PUBCHEM_COMPONENT_COUNT>
1

> <PUBCHEM_CACTVS_TAUTO_COUNT>
1

> <PUBCHEM_COORDINATE_TYPE>
1
5
255

> <PUBCHEM_BONDANNOTATIONS>
10  13  8
12  13  8
7  10  8
7  8  8
8  9  8
9  12  8

$$$$
61343183
  -OEChem-11301218202D

 33 34  0     0  0  0  0  0  0999 V2000
    3.7320   -0.0194    0.0000 N   0  0  0  0  0  0  0  0  0  0  0  0
    4.5981    1.4806    0.0000 C   0  0  0  0  0  0  0  0  0  0  0  0
    5.4071    2.0684    0.0000 C   0  0  0  0  0  0  0  0  0  0  0  0
    3.7891    2.0684    0.0000 C   0  0  0  0  0  0  0  0  0  0  0  0
    5.0981    3.0194    0.0000 C   0  0  0  0  0  0  0  0  0  0  0  0
    4.0981    3.0194    0.0000 C   0  0  0  0  0  0  0  0  0  0  0  0
    4.5981    0.4806    0.0000 C   0  0  0  0  0  0  0  0  0  0  0  0
    3.7320   -1.0194    0.0000 C   0  0  0  0  0  0  0  0  0  0  0  0
    2.8660   -1.5194    0.0000 C   0  0  0  0  0  0  0  0  0  0  0  0
    4.5981   -1.5194    0.0000 C   0  0  0  0  0  0  0  0  0  0  0  0
    2.8660   -2.5194    0.0000 C   0  0  0  0  0  0  0  0  0  0  0  0
    2.0000   -1.0194    0.0000 C   0  0  0  0  0  0  0  0  0  0  0  0
    4.5981   -2.5194    0.0000 C   0  0  0  0  0  0  0  0  0  0  0  0
    3.7320   -3.0194    0.0000 C   0  0  0  0  0  0  0  0  0  0  0  0
    5.1505    1.1991    0.0000 H   0  0  0  0  0  0  0  0  0  0  0  0
    5.7171    1.5314    0.0000 H   0  0  0  0  0  0  0  0  0  0  0  0
    5.9735    2.3205    0.0000 H   0  0  0  0  0  0  0  0  0  0  0  0
    3.2227    2.3205    0.0000 H   0  0  0  0  0  0  0  0  0  0  0  0
    3.4791    1.5314    0.0000 H   0  0  0  0  0  0  0  0  0  0  0  0
    5.7045    3.1483    0.0000 H   0  0  0  0  0  0  0  0  0  0  0  0
    5.0333    3.6360    0.0000 H   0  0  0  0  0  0  0  0  0  0  0  0
    4.1629    3.6360    0.0000 H   0  0  0  0  0  0  0  0  0  0  0  0
    3.4916    3.1483    0.0000 H   0  0  0  0  0  0  0  0  0  0  0  0
    4.8101   -0.1020    0.0000 H   0  0  0  0  0  0  0  0  0  0  0  0
    5.2087    0.5882    0.0000 H   0  0  0  0  0  0  0  0  0  0  0  0
    3.1951    0.2906    0.0000 H   0  0  0  0  0  0  0  0  0  0  0  0
    5.1350   -1.2094    0.0000 H   0  0  0  0  0  0  0  0  0  0  0  0
    2.3291   -2.8294    0.0000 H   0  0  0  0  0  0  0  0  0  0  0  0
    2.3100   -0.4825    0.0000 H   0  0  0  0  0  0  0  0  0  0  0  0
    1.4631   -0.7094    0.0000 H   0  0  0  0  0  0  0  0  0  0  0  0
    1.6900   -1.5564    0.0000 H   0  0  0  0  0  0  0  0  0  0  0  0
    5.1350   -2.8294    0.0000 H   0  0  0  0  0  0  0  0  0  0  0  0
    3.7320   -3.6394    0.0000 H   0  0  0  0  0  0  0  0  0  0  0  0
  1  7  1  0  0  0  0
  1  8  1  0  0  0  0
  1 26  1  0  0  0  0
  2  3  1  0  0  0  0
  2  4  1  0  0  0  0
  2  7  1  0  0  0  0
  2 15  1  0  0  0  0
  3  5  1  0  0  0  0
  3 16  1  0  0  0  0
  3 17  1  0  0  0  0
  4  6  1  0  0  0  0
  4 18  1  0  0  0  0
  4 19  1  0  0  0  0
  5  6  1  0  0  0  0
  5 20  1  0  0  0  0
  5 21  1  0  0  0  0
  6 22  1  0  0  0  0
  6 23  1  0  0  0  0
  7 24  1  0  0  0  0
  7 25  1  0  0  0  0
  8  9  1  0  0  0  0
  8 10  2  0  0  0  0
  9 11  2  0  0  0  0
  9 12  1  0  0  0  0
 10 13  1  0  0  0  0
 10 27  1  0  0  0  0
 11 14  1  0  0  0  0
 11 28  1  0  0  0  0
 12 29  1  0  0  0  0
 12 30  1  0  0  0  0
 12 31  1  0  0  0  0
 13 14  2  0  0  0  0
 13 32  1  0  0  0  0
 14 33  1  0  0  0  0
M  END
> <PUBCHEM_COMPOUND_CID>
61343183

> <PUBCHEM_COMPOUND_CANONICALIZED>
1

> <PUBCHEM_CACTVS_COMPLEXITY>
161

> <PUBCHEM_CACTVS_HBOND_ACCEPTOR>
1

> <PUBCHEM_CACTVS_HBOND_DONOR>
1

> <PUBCHEM_CACTVS_ROTATABLE_BOND>
3

> <PUBCHEM_CACTVS_SUBSKEYS>
AAADceByAAAAAAAAAAAAAAAAAAAAAYAAAAAwAAAAAAAAAAABAAAAHAAQAAAADQjBGAQywILAAACAAiRCQACCAAAhAgAIiIAIZIgIICLAkZGEIAhgkADIyAcQgAAOAAAAAAACAAAAAAAAAAQAAAAAAAAAAA==

> <PUBCHEM_IUPAC_OPENEYE_NAME>
N-(cyclopentylmethyl)-2-methyl-aniline

> <PUBCHEM_IUPAC_CAS_NAME>
N-(cyclopentylmethyl)-2-methylaniline

> <PUBCHEM_IUPAC_NAME>
N-(cyclopentylmethyl)-2-methylaniline

> <PUBCHEM_IUPAC_SYSTEMATIC_NAME>
N-(cyclopentylmethyl)-2-methyl-aniline

> <PUBCHEM_IUPAC_TRADITIONAL_NAME>
cyclopentylmethyl(o-tolyl)amine

> <PUBCHEM_IUPAC_INCHI>
InChI=1S/C13H19N/c1-11-6-2-5-9-13(11)14-10-12-7-3-4-8-12/h2,5-6,9,12,14H,3-4,7-8,10H2,1H3

> <PUBCHEM_IUPAC_INCHIKEY>
OLCUEIKGXAHKSB-UHFFFAOYSA-N

> <PUBCHEM_XLOGP3>
4

> <PUBCHEM_EXACT_MASS>
189.15175

> <PUBCHEM_MOLECULAR_FORMULA>
C13H19N

> <PUBCHEM_MOLECULAR_WEIGHT>
189.29666

> <PUBCHEM_OPENEYE_CAN_SMILES>
CC1=CC=CC=C1NCC2CCCC2

> <PUBCHEM_OPENEYE_ISO_SMILES>
CC1=CC=CC=C1NCC2CCCC2

> <PUBCHEM_CACTVS_TPSA>
12

> <PUBCHEM_MONOISOTOPIC_WEIGHT>
189.15175

> <PUBCHEM_TOTAL_CHARGE>
0

> <PUBCHEM_HEAVY_ATOM_COUNT>
14

> <PUBCHEM_ATOM_DEF_STEREO_COUNT>
0

> <PUBCHEM_ATOM_UDEF_STEREO_COUNT>
0

> <PUBCHEM_BOND_DEF_STEREO_COUNT>
0

> <PUBCHEM_BOND_UDEF_STEREO_COUNT>
0

> <PUBCHEM_ISOTOPIC_ATOM_COUNT>
0

> <PUBCHEM_COMPONENT_COUNT>
1

> <PUBCHEM_CACTVS_TAUTO_COUNT>
1

> <PUBCHEM_COORDINATE_TYPE>
1
5
255

> <PUBCHEM_BONDANNOTATIONS>
10  13  8
11  14  8
13  14  8
8  10  8
8  9  8
9  11  8

$$$$
61343224
  -OEChem-11301218202D

 20 20  0     0  0  0  0  0  0999 V2000
    6.8671    0.3450    0.0000 O   0  0  0  0  0  0  0  0  0  0  0  0
    5.1350    0.3450    0.0000 N   0  0  0  0  0  0  0  0  0  0  0  0
    5.1350   -0.6550    0.0000 C   0  0  0  0  0  0  0  0  0  0  0  0
    4.2690   -1.1550    0.0000 C   0  0  0  0  0  0  0  0  0  0  0  0
    6.0010   -1.1550    0.0000 C   0  0  0  0  0  0  0  0  0  0  0  0
    4.2690   -2.1550    0.0000 C   0  0  0  0  0  0  0  0  0  0  0  0
    6.0010   -2.1550    0.0000 C   0  0  0  0  0  0  0  0  0  0  0  0
    5.1350   -2.6550    0.0000 C   0  0  0  0  0  0  0  0  0  0  0  0
    6.0010    0.8450    0.0000 C   0  0  0  0  0  0  0  0  0  0  0  0
    3.4030   -2.6550    0.0000 C   0  0  0  0  0  0  0  0  0  0  0  0
    6.0010    1.8450    0.0000 C   0  0  0  0  0  0  0  0  0  0  0  0
    2.5369   -3.1550    0.0000 C   0  0  0  0  0  0  0  0  0  0  0  0
    6.0010    2.8450    0.0000 C   0  0  0  0  0  0  0  0  0  0  0  0
    3.7320   -0.8450    0.0000 H   0  0  0  0  0  0  0  0  0  0  0  0
    6.5380   -0.8450    0.0000 H   0  0  0  0  0  0  0  0  0  0  0  0
    6.5380   -2.4650    0.0000 H   0  0  0  0  0  0  0  0  0  0  0  0
    5.1350   -3.2750    0.0000 H   0  0  0  0  0  0  0  0  0  0  0  0
    4.5981    0.6550    0.0000 H   0  0  0  0  0  0  0  0  0  0  0  0
    2.0000   -3.4650    0.0000 H   0  0  0  0  0  0  0  0  0  0  0  0
    6.0010    3.4650    0.0000 H   0  0  0  0  0  0  0  0  0  0  0  0
  1  9  2  0  0  0  0
  2  3  1  0  0  0  0
  2  9  1  0  0  0  0
  2 18  1  0  0  0  0
  3  4  1  0  0  0  0
  3  5  2  0  0  0  0
  4  6  2  0  0  0  0
  4 14  1  0  0  0  0
  5  7  1  0  0  0  0
  5 15  1  0  0  0  0
  6  8  1  0  0  0  0
  6 10  1  0  0  0  0
  7  8  2  0  0  0  0
  7 16  1  0  0  0  0
  8 17  1  0  0  0  0
  9 11  1  0  0  0  0
 10 12  3  0  0  0  0
 11 13  3  0  0  0  0
 12 19  1  0  0  0  0
 13 20  1  0  0  0  0
M  END
> <PUBCHEM_COMPOUND_CID>
61343224

> <PUBCHEM_COMPOUND_CANONICALIZED>
1

> <PUBCHEM_CACTVS_COMPLEXITY>
288

> <PUBCHEM_CACTVS_HBOND_ACCEPTOR>
1

> <PUBCHEM_CACTVS_HBOND_DONOR>
1

> <PUBCHEM_CACTVS_ROTATABLE_BOND>
2

> <PUBCHEM_CACTVS_SUBSKEYS>
AAADcYByIAAAAAAAAAAAAAAAAAAAAAAAAAAwAAAAAAAAAAABAAAAHgAQAAAADAiBmAAwwILAAADIGiVSUAiCAAAhAgAIiAAAZIgIICLAkZGEIAhglADIyAcQgAAOAAAAQAAAAAAAAACAAAAAAAAAAAAAAA==

> <PUBCHEM_IUPAC_OPENEYE_NAME>
N-(3-ethynylphenyl)prop-2-ynamide

> <PUBCHEM_IUPAC_CAS_NAME>
N-(3-ethynylphenyl)-2-propynamide

> <PUBCHEM_IUPAC_NAME>
N-(3-ethynylphenyl)prop-2-ynamide

> <PUBCHEM_IUPAC_SYSTEMATIC_NAME>
N-(3-ethynylphenyl)prop-2-ynamide

> <PUBCHEM_IUPAC_TRADITIONAL_NAME>
N-(3-ethynylphenyl)propiolamide

> <PUBCHEM_IUPAC_INCHI>
InChI=1S/C11H7NO/c1-3-9-6-5-7-10(8-9)12-11(13)4-2/h1-2,5-8H,(H,12,13)

> <PUBCHEM_IUPAC_INCHIKEY>
NJGFKGORZRXGRU-UHFFFAOYSA-N

> <PUBCHEM_XLOGP3>
2

> <PUBCHEM_EXACT_MASS>
169.052764

> <PUBCHEM_MOLECULAR_FORMULA>
C11H7NO

> <PUBCHEM_MOLECULAR_WEIGHT>
169.17938

> <PUBCHEM_OPENEYE_CAN_SMILES>
C#CC1=CC(=CC=C1)NC(=O)C#C

> <PUBCHEM_OPENEYE_ISO_SMILES>
C#CC1=CC(=CC=C1)NC(=O)C#C

> <PUBCHEM_CACTVS_TPSA>
29.1

> <PUBCHEM_MONOISOTOPIC_WEIGHT>
169.052764

> <PUBCHEM_TOTAL_CHARGE>
0

> <PUBCHEM_HEAVY_ATOM_COUNT>
13

> <PUBCHEM_ATOM_DEF_STEREO_COUNT>
0

> <PUBCHEM_ATOM_UDEF_STEREO_COUNT>
0

> <PUBCHEM_BOND_DEF_STEREO_COUNT>
0

> <PUBCHEM_BOND_UDEF_STEREO_COUNT>
0

> <PUBCHEM_ISOTOPIC_ATOM_COUNT>
0

> <PUBCHEM_COMPONENT_COUNT>
1

> <PUBCHEM_CACTVS_TAUTO_COUNT>
2

> <PUBCHEM_COORDINATE_TYPE>
1
5
255

> <PUBCHEM_BONDANNOTATIONS>
3  4  8
3  5  8
4  6  8
5  7  8
6  8  8
7  8  8

$$$$
61343593
  -OEChem-11301218202D

 28 28  0     1  0  0  0  0  0999 V2000
    3.7320   -0.0600    0.0000 N   0  0  3  0  0  0  0  0  0  0  0  0
    3.7320   -1.0600    0.0000 C   0  0  0  0  0  0  0  0  0  0  0  0
    2.8660    0.4400    0.0000 C   0  0  0  0  0  0  0  0  0  0  0  0
    2.8660   -1.5600    0.0000 C   0  0  0  0  0  0  0  0  0  0  0  0
    4.5981    0.4400    0.0000 C   0  0  0  0  0  0  0  0  0  0  0  0
    2.8660   -2.5600    0.0000 C   0  0  0  0  0  0  0  0  0  0  0  0
    4.5981   -1.5600    0.0000 C   0  0  0  0  0  0  0  0  0  0  0  0
    2.8660    1.4400    0.0000 C   0  0  0  0  0  0  0  0  0  0  0  0
    3.7320   -3.0600    0.0000 C   0  0  0  0  0  0  0  0  0  0  0  0
    4.5981   -2.5600    0.0000 C   0  0  0  0  0  0  0  0  0  0  0  0
    2.0000   -3.0600    0.0000 C   0  0  0  0  0  0  0  0  0  0  0  0
    4.5981    1.4400    0.0000 C   0  0  0  0  0  0  0  0  0  0  0  0
    4.5981    2.4400    0.0000 C   0  0  0  0  0  0  0  0  0  0  0  0
    2.2554    0.5477    0.0000 H   0  0  0  0  0  0  0  0  0  0  0  0
    2.6540   -0.1426    0.0000 H   0  0  0  0  0  0  0  0  0  0  0  0
    2.3291   -1.2500    0.0000 H   0  0  0  0  0  0  0  0  0  0  0  0
    4.8101   -0.1426    0.0000 H   0  0  0  0  0  0  0  0  0  0  0  0
    5.2087    0.5477    0.0000 H   0  0  0  0  0  0  0  0  0  0  0  0
    5.1350   -1.2500    0.0000 H   0  0  0  0  0  0  0  0  0  0  0  0
    3.4860    1.4400    0.0000 H   0  0  0  0  0  0  0  0  0  0  0  0
    2.8660    2.0600    0.0000 H   0  0  0  0  0  0  0  0  0  0  0  0
    2.2460    1.4400    0.0000 H   0  0  0  0  0  0  0  0  0  0  0  0
    3.7320   -3.6800    0.0000 H   0  0  0  0  0  0  0  0  0  0  0  0
    5.1350   -2.8700    0.0000 H   0  0  0  0  0  0  0  0  0  0  0  0
    1.6900   -2.5231    0.0000 H   0  0  0  0  0  0  0  0  0  0  0  0
    1.4631   -3.3700    0.0000 H   0  0  0  0  0  0  0  0  0  0  0  0
    2.3100   -3.5969    0.0000 H   0  0  0  0  0  0  0  0  0  0  0  0
    4.5981    3.0600    0.0000 H   0  0  0  0  0  0  0  0  0  0  0  0
  1  2  1  0  0  0  0
  1  3  1  0  0  0  0
  1  5  1  0  0  0  0
  2  4  1  0  0  0  0
  2  7  2  0  0  0  0
  3  8  1  0  0  0  0
  3 14  1  0  0  0  0
  3 15  1  0  0  0  0
  4  6  2  0  0  0  0
  4 16  1  0  0  0  0
  5 12  1  0  0  0  0
  5 17  1  0  0  0  0
  5 18  1  0  0  0  0
  6  9  1  0  0  0  0
  6 11  1  0  0  0  0
  7 10  1  0  0  0  0
  7 19  1  0  0  0  0
  8 20  1  0  0  0  0
  8 21  1  0  0  0  0
  8 22  1  0  0  0  0
  9 10  2  0  0  0  0
  9 23  1  0  0  0  0
 10 24  1  0  0  0  0
 11 25  1  0  0  0  0
 11 26  1  0  0  0  0
 11 27  1  0  0  0  0
 12 13  3  0  0  0  0
 13 28  1  0  0  0  0
M  END
> <PUBCHEM_COMPOUND_CID>
61343593

> <PUBCHEM_COMPOUND_CANONICALIZED>
1

> <PUBCHEM_CACTVS_COMPLEXITY>
189

> <PUBCHEM_CACTVS_HBOND_ACCEPTOR>
1

> <PUBCHEM_CACTVS_HBOND_DONOR>
0

> <PUBCHEM_CACTVS_ROTATABLE_BOND>
3

> <PUBCHEM_CACTVS_SUBSKEYS>
AAADccByAAAAAAAAAAAAAAAAAAAAAAAAAAAwAAAAAAAAAAABAAAAHAAAAAAADAjBGAQywIMAAADAGiRCQACCAAAhAgAIiAAIZIgIICLAkZGEIAhggADIyAcQgAAOAAAAQAAAAAAAAACAAAAAAAAAAAAAAA==

> <PUBCHEM_IUPAC_OPENEYE_NAME>
N-ethyl-3-methyl-N-prop-2-ynyl-aniline

> <PUBCHEM_IUPAC_CAS_NAME>
N-ethyl-3-methyl-N-prop-2-ynylaniline

> <PUBCHEM_IUPAC_NAME>
N-ethyl-3-methyl-N-prop-2-ynylaniline

> <PUBCHEM_IUPAC_SYSTEMATIC_NAME>
N-ethyl-3-methyl-N-prop-2-ynyl-aniline

> <PUBCHEM_IUPAC_TRADITIONAL_NAME>
ethyl-(m-tolyl)-propargyl-amine

> <PUBCHEM_IUPAC_INCHI>
InChI=1S/C12H15N/c1-4-9-13(5-2)12-8-6-7-11(3)10-12/h1,6-8,10H,5,9H2,2-3H3

> <PUBCHEM_IUPAC_INCHIKEY>
BWMNRBHZBMDCDO-UHFFFAOYSA-N

> <PUBCHEM_XLOGP3>
3.3

> <PUBCHEM_EXACT_MASS>
173.120449

> <PUBCHEM_MOLECULAR_FORMULA>
C12H15N

> <PUBCHEM_MOLECULAR_WEIGHT>
173.2542

> <PUBCHEM_OPENEYE_CAN_SMILES>
CCN(CC#C)C1=CC=CC(=C1)C

> <PUBCHEM_OPENEYE_ISO_SMILES>
CCN(CC#C)C1=CC=CC(=C1)C

> <PUBCHEM_CACTVS_TPSA>
3.2

> <PUBCHEM_MONOISOTOPIC_WEIGHT>
173.120449

> <PUBCHEM_TOTAL_CHARGE>
0

> <PUBCHEM_HEAVY_ATOM_COUNT>
13

> <PUBCHEM_ATOM_DEF_STEREO_COUNT>
0

> <PUBCHEM_ATOM_UDEF_STEREO_COUNT>
0

> <PUBCHEM_BOND_DEF_STEREO_COUNT>
0

> <PUBCHEM_BOND_UDEF_STEREO_COUNT>
0

> <PUBCHEM_ISOTOPIC_ATOM_COUNT>
0

> <PUBCHEM_COMPONENT_COUNT>
1

> <PUBCHEM_CACTVS_TAUTO_COUNT>
1

> <PUBCHEM_COORDINATE_TYPE>
1
5
255

> <PUBCHEM_BONDANNOTATIONS>
2  4  8
2  7  8
4  6  8
6  9  8
7  10  8
9  10  8

$$$$
61343777
  -OEChem-11301218202D

 33 33  0     0  0  0  0  0  0999 V2000
    5.1350    0.5000    0.0000 O   0  0  0  0  0  0  0  0  0  0  0  0
    6.8671    1.5000    0.0000 C   0  0  0  0  0  0  0  0  0  0  0  0
    6.8671    0.5000    0.0000 C   0  0  0  0  0  0  0  0  0  0  0  0
    6.8671    2.5000    0.0000 C   0  0  0  0  0  0  0  0  0  0  0  0
    7.8671    1.5000    0.0000 C   0  0  0  0  0  0  0  0  0  0  0  0
    5.8671    1.5000    0.0000 C   0  0  0  0  0  0  0  0  0  0  0  0
    6.0010    0.0000    0.0000 C   0  0  0  0  0  0  0  0  0  0  0  0
    7.7331    0.0000    0.0000 C   0  0  0  0  0  0  0  0  0  0  0  0
    6.0010   -1.0000    0.0000 C   0  0  0  0  0  0  0  0  0  0  0  0
    6.8671   -1.5000    0.0000 C   0  0  0  0  0  0  0  0  0  0  0  0
    7.7331   -1.0000    0.0000 C   0  0  0  0  0  0  0  0  0  0  0  0
    6.8671   -2.5000    0.0000 C   0  0  0  0  0  0  0  0  0  0  0  0
    4.2690    0.0000    0.0000 C   0  0  0  0  0  0  0  0  0  0  0  0
    3.4030    0.5000    0.0000 C   0  0  0  0  0  0  0  0  0  0  0  0
    2.5369    1.0000    0.0000 C   0  0  0  0  0  0  0  0  0  0  0  0
    7.4871    2.5000    0.0000 H   0  0  0  0  0  0  0  0  0  0  0  0
    6.8671    3.1200    0.0000 H   0  0  0  0  0  0  0  0  0  0  0  0
    6.2471    2.5000    0.0000 H   0  0  0  0  0  0  0  0  0  0  0  0
    7.8671    0.8800    0.0000 H   0  0  0  0  0  0  0  0  0  0  0  0
    8.4871    1.5000    0.0000 H   0  0  0  0  0  0  0  0  0  0  0  0
    7.8671    2.1200    0.0000 H   0  0  0  0  0  0  0  0  0  0  0  0
    5.8671    2.1200    0.0000 H   0  0  0  0  0  0  0  0  0  0  0  0
    5.2471    1.5000    0.0000 H   0  0  0  0  0  0  0  0  0  0  0  0
    5.8671    0.8800    0.0000 H   0  0  0  0  0  0  0  0  0  0  0  0
    8.2700    0.3100    0.0000 H   0  0  0  0  0  0  0  0  0  0  0  0
    5.4641   -1.3100    0.0000 H   0  0  0  0  0  0  0  0  0  0  0  0
    8.2700   -1.3100    0.0000 H   0  0  0  0  0  0  0  0  0  0  0  0
    6.2471   -2.5000    0.0000 H   0  0  0  0  0  0  0  0  0  0  0  0
    6.8671   -3.1200    0.0000 H   0  0  0  0  0  0  0  0  0  0  0  0
    7.4871   -2.5000    0.0000 H   0  0  0  0  0  0  0  0  0  0  0  0
    3.8705   -0.4749    0.0000 H   0  0  0  0  0  0  0  0  0  0  0  0
    4.6675   -0.4749    0.0000 H   0  0  0  0  0  0  0  0  0  0  0  0
    2.0000    1.3100    0.0000 H   0  0  0  0  0  0  0  0  0  0  0  0
  1  7  1  0  0  0  0
  1 13  1  0  0  0  0
  2  3  1  0  0  0  0
  2  4  1  0  0  0  0
  2  5  1  0  0  0  0
  2  6  1  0  0  0  0
  3  7  2  0  0  0  0
  3  8  1  0  0  0  0
  4 16  1  0  0  0  0
  4 17  1  0  0  0  0
  4 18  1  0  0  0  0
  5 19  1  0  0  0  0
  5 20  1  0  0  0  0
  5 21  1  0  0  0  0
  6 22  1  0  0  0  0
  6 23  1  0  0  0  0
  6 24  1  0  0  0  0
  7  9  1  0  0  0  0
  8 11  2  0  0  0  0
  8 25  1  0  0  0  0
  9 10  2  0  0  0  0
  9 26  1  0  0  0  0
 10 11  1  0  0  0  0
 10 12  1  0  0  0  0
 11 27  1  0  0  0  0
 12 28  1  0  0  0  0
 12 29  1  0  0  0  0
 12 30  1  0  0  0  0
 13 14  1  0  0  0  0
 13 31  1  0  0  0  0
 13 32  1  0  0  0  0
 14 15  3  0  0  0  0
 15 33  1  0  0  0  0
M  END
> <PUBCHEM_COMPOUND_CID>
61343777

> <PUBCHEM_COMPOUND_CANONICALIZED>
1

> <PUBCHEM_CACTVS_COMPLEXITY>
240

> <PUBCHEM_CACTVS_HBOND_ACCEPTOR>
1

> <PUBCHEM_CACTVS_HBOND_DONOR>
0

> <PUBCHEM_CACTVS_ROTATABLE_BOND>
3

> <PUBCHEM_CACTVS_SUBSKEYS>
AAADceBwIAAAAAAAAAAAAAAAAAAAAAAAAAAwAAAAAAAAAAABAAAAGgAAAAAADgSgmAIyBoAABADAGiBCAAACCAAgIAAIiAAGCIgMJiKEMRqCOCCkwBEIqAeAwPAPwAABAAAIAACAAAIAABAAAAAAAAAAAA==

> <PUBCHEM_IUPAC_OPENEYE_NAME>
1-tert-butyl-4-methyl-2-prop-2-ynoxy-benzene

> <PUBCHEM_IUPAC_CAS_NAME>
1-tert-butyl-4-methyl-2-prop-2-ynoxybenzene

> <PUBCHEM_IUPAC_NAME>
1-tert-butyl-4-methyl-2-prop-2-ynoxybenzene

> <PUBCHEM_IUPAC_SYSTEMATIC_NAME>
1-tert-butyl-4-methyl-2-prop-2-ynoxy-benzene

> <PUBCHEM_IUPAC_TRADITIONAL_NAME>
1-tert-butyl-4-methyl-2-propargyloxy-benzene

> <PUBCHEM_IUPAC_INCHI>
InChI=1S/C14H18O/c1-6-9-15-13-10-11(2)7-8-12(13)14(3,4)5/h1,7-8,10H,9H2,2-5H3

> <PUBCHEM_IUPAC_INCHIKEY>
KAHOASGBQWCOPB-UHFFFAOYSA-N

> <PUBCHEM_XLOGP3>
3.6

> <PUBCHEM_EXACT_MASS>
202.135765

> <PUBCHEM_MOLECULAR_FORMULA>
C14H18O

> <PUBCHEM_MOLECULAR_WEIGHT>
202.29212

> <PUBCHEM_OPENEYE_CAN_SMILES>
CC1=CC(=C(C=C1)C(C)(C)C)OCC#C

> <PUBCHEM_OPENEYE_ISO_SMILES>
CC1=CC(=C(C=C1)C(C)(C)C)OCC#C

> <PUBCHEM_CACTVS_TPSA>
9.2

> <PUBCHEM_MONOISOTOPIC_WEIGHT>
202.135765

> <PUBCHEM_TOTAL_CHARGE>
0

> <PUBCHEM_HEAVY_ATOM_COUNT>
15

> <PUBCHEM_ATOM_DEF_STEREO_COUNT>
0

> <PUBCHEM_ATOM_UDEF_STEREO_COUNT>
0

> <PUBCHEM_BOND_DEF_STEREO_COUNT>
0

> <PUBCHEM_BOND_UDEF_STEREO_COUNT>
0

> <PUBCHEM_ISOTOPIC_ATOM_COUNT>
0

> <PUBCHEM_COMPONENT_COUNT>
1

> <PUBCHEM_CACTVS_TAUTO_COUNT>
1

> <PUBCHEM_COORDINATE_TYPE>
1
5
255

> <PUBCHEM_BONDANNOTATIONS>
10  11  8
3  7  8
3  8  8
7  9  8
8  11  8
9  10  8

$$$$
61343954
  -OEChem-11301218202D

 30 30  0     0  0  0  0  0  0999 V2000
    5.1350    0.0000    0.0000 O   0  0  0  0  0  0  0  0  0  0  0  0
    6.8671    1.0000    0.0000 C   0  0  0  0  0  0  0  0  0  0  0  0
    6.8671    0.0000    0.0000 C   0  0  0  0  0  0  0  0  0  0  0  0
    6.8671    2.0000    0.0000 C   0  0  0  0  0  0  0  0  0  0  0  0
    7.8671    1.0000    0.0000 C   0  0  0  0  0  0  0  0  0  0  0  0
    5.8671    1.0000    0.0000 C   0  0  0  0  0  0  0  0  0  0  0  0
    6.0010   -0.5000    0.0000 C   0  0  0  0  0  0  0  0  0  0  0  0
    7.7331   -0.5000    0.0000 C   0  0  0  0  0  0  0  0  0  0  0  0
    6.0010   -1.5000    0.0000 C   0  0  0  0  0  0  0  0  0  0  0  0
    7.7331   -1.5000    0.0000 C   0  0  0  0  0  0  0  0  0  0  0  0
    6.8671   -2.0000    0.0000 C   0  0  0  0  0  0  0  0  0  0  0  0
    4.2690   -0.5000    0.0000 C   0  0  0  0  0  0  0  0  0  0  0  0
    3.4030    0.0000    0.0000 C   0  0  0  0  0  0  0  0  0  0  0  0
    2.5369    0.5000    0.0000 C   0  0  0  0  0  0  0  0  0  0  0  0
    7.4871    2.0000    0.0000 H   0  0  0  0  0  0  0  0  0  0  0  0
    7.8671    0.3800    0.0000 H   0  0  0  0  0  0  0  0  0  0  0  0
    8.4871    1.0000    0.0000 H   0  0  0  0  0  0  0  0  0  0  0  0
    7.8671    1.6200    0.0000 H   0  0  0  0  0  0  0  0  0  0  0  0
    5.8671    1.6200    0.0000 H   0  0  0  0  0  0  0  0  0  0  0  0
    5.2471    1.0000    0.0000 H   0  0  0  0  0  0  0  0  0  0  0  0
    5.8671    0.3800    0.0000 H   0  0  0  0  0  0  0  0  0  0  0  0
    6.8671    2.6200    0.0000 H   0  0  0  0  0  0  0  0  0  0  0  0
    6.2471    2.0000    0.0000 H   0  0  0  0  0  0  0  0  0  0  0  0
    8.2700   -0.1900    0.0000 H   0  0  0  0  0  0  0  0  0  0  0  0
    5.4641   -1.8100    0.0000 H   0  0  0  0  0  0  0  0  0  0  0  0
    8.2700   -1.8100    0.0000 H   0  0  0  0  0  0  0  0  0  0  0  0
    6.8671   -2.6200    0.0000 H   0  0  0  0  0  0  0  0  0  0  0  0
    3.8705   -0.9749    0.0000 H   0  0  0  0  0  0  0  0  0  0  0  0
    4.6675   -0.9749    0.0000 H   0  0  0  0  0  0  0  0  0  0  0  0
    2.0000    0.8100    0.0000 H   0  0  0  0  0  0  0  0  0  0  0  0
  1  7  1  0  0  0  0
  1 12  1  0  0  0  0
  2  3  1  0  0  0  0
  2  4  1  0  0  0  0
  2  5  1  0  0  0  0
  2  6  1  0  0  0  0
  3  7  1  0  0  0  0
  3  8  2  0  0  0  0
  4 15  1  0  0  0  0
  4 22  1  0  0  0  0
  4 23  1  0  0  0  0
  5 16  1  0  0  0  0
  5 17  1  0  0  0  0
  5 18  1  0  0  0  0
  6 19  1  0  0  0  0
  6 20  1  0  0  0  0
  6 21  1  0  0  0  0
  7  9  2  0  0  0  0
  8 10  1  0  0  0  0
  8 24  1  0  0  0  0
  9 11  1  0  0  0  0
  9 25  1  0  0  0  0
 10 11  2  0  0  0  0
 10 26  1  0  0  0  0
 11 27  1  0  0  0  0
 12 13  1  0  0  0  0
 12 28  1  0  0  0  0
 12 29  1  0  0  0  0
 13 14  3  0  0  0  0
 14 30  1  0  0  0  0
M  END
> <PUBCHEM_COMPOUND_CID>
61343954

> <PUBCHEM_COMPOUND_CANONICALIZED>
1

> <PUBCHEM_CACTVS_COMPLEXITY>
215

> <PUBCHEM_CACTVS_HBOND_ACCEPTOR>
1

> <PUBCHEM_CACTVS_HBOND_DONOR>
0

> <PUBCHEM_CACTVS_ROTATABLE_BOND>
3

> <PUBCHEM_CACTVS_SUBSKEYS>
AAADceBwIAAAAAAAAAAAAAAAAAAAAAAAAAAwAAAAAAAAAAABAAAAGgAAAAAADgSgmAIyBoAABADAGiBCAAACCAAgIAAIiAAGCIgMJiKEMRqCOCCkwBEIqAeAwOAPgAAAAAAIAAAAAAAAABAAAAAAAAAAAA==

> <PUBCHEM_IUPAC_OPENEYE_NAME>
1-tert-butyl-2-prop-2-ynoxy-benzene

> <PUBCHEM_IUPAC_CAS_NAME>
1-tert-butyl-2-prop-2-ynoxybenzene

> <PUBCHEM_IUPAC_NAME>
1-tert-butyl-2-prop-2-ynoxybenzene

> <PUBCHEM_IUPAC_SYSTEMATIC_NAME>
1-tert-butyl-2-prop-2-ynoxy-benzene

> <PUBCHEM_IUPAC_TRADITIONAL_NAME>
1-tert-butyl-2-propargyloxy-benzene

> <PUBCHEM_IUPAC_INCHI>
InChI=1S/C13H16O/c1-5-10-14-12-9-7-6-8-11(12)13(2,3)4/h1,6-9H,10H2,2-4H3

> <PUBCHEM_IUPAC_INCHIKEY>
OHPUUFVKPLRCRU-UHFFFAOYSA-N

> <PUBCHEM_XLOGP3>
3.8

> <PUBCHEM_EXACT_MASS>
188.120115

> <PUBCHEM_MOLECULAR_FORMULA>
C13H16O

> <PUBCHEM_MOLECULAR_WEIGHT>
188.26554

> <PUBCHEM_OPENEYE_CAN_SMILES>
CC(C)(C)C1=CC=CC=C1OCC#C

> <PUBCHEM_OPENEYE_ISO_SMILES>
CC(C)(C)C1=CC=CC=C1OCC#C

> <PUBCHEM_CACTVS_TPSA>
9.2

> <PUBCHEM_MONOISOTOPIC_WEIGHT>
188.120115

> <PUBCHEM_TOTAL_CHARGE>
0

> <PUBCHEM_HEAVY_ATOM_COUNT>
14

> <PUBCHEM_ATOM_DEF_STEREO_COUNT>
0

> <PUBCHEM_ATOM_UDEF_STEREO_COUNT>
0

> <PUBCHEM_BOND_DEF_STEREO_COUNT>
0

> <PUBCHEM_BOND_UDEF_STEREO_COUNT>
0

> <PUBCHEM_ISOTOPIC_ATOM_COUNT>
0

> <PUBCHEM_COMPONENT_COUNT>
1

> <PUBCHEM_CACTVS_TAUTO_COUNT>
1

> <PUBCHEM_COORDINATE_TYPE>
1
5
255

> <PUBCHEM_BONDANNOTATIONS>
10  11  8
3  7  8
3  8  8
7  9  8
8  10  8
9  11  8

$$$$
61344323
  -OEChem-11301218202D

 30 31  0     0  0  0  0  0  0999 V2000
    2.0000   -1.2500    0.0000 Cl  0  0  0  0  0  0  0  0  0  0  0  0
    5.4641   -3.2500    0.0000 Cl  0  0  0  0  0  0  0  0  0  0  0  0
    5.4641   -0.2500    0.0000 O   0  0  0  0  0  0  0  0  0  0  0  0
    3.7320   -0.2500    0.0000 N   0  0  0  0  0  0  0  0  0  0  0  0
    4.5981    1.2500    0.0000 N   0  0  0  0  0  0  0  0  0  0  0  0
    3.7320   -1.2500    0.0000 C   0  0  0  0  0  0  0  0  0  0  0  0
    5.4641    1.7500    0.0000 C   0  0  0  0  0  0  0  0  0  0  0  0
    2.8660   -1.7500    0.0000 C   0  0  0  0  0  0  0  0  0  0  0  0
    4.5981   -1.7500    0.0000 C   0  0  0  0  0  0  0  0  0  0  0  0
    4.5981    0.2500    0.0000 C   0  0  0  0  0  0  0  0  0  0  0  0
    6.3301    1.2500    0.0000 C   0  0  0  0  0  0  0  0  0  0  0  0
    5.4641    2.7500    0.0000 C   0  0  0  0  0  0  0  0  0  0  0  0
    7.1962    1.7500    0.0000 C   0  0  0  0  0  0  0  0  0  0  0  0
    4.5981   -2.7500    0.0000 C   0  0  0  0  0  0  0  0  0  0  0  0
    2.8660   -2.7500    0.0000 C   0  0  0  0  0  0  0  0  0  0  0  0
    6.3301    3.2500    0.0000 C   0  0  0  0  0  0  0  0  0  0  0  0
    3.7320   -3.2500    0.0000 C   0  0  0  0  0  0  0  0  0  0  0  0
    7.1962    2.7500    0.0000 C   0  0  0  0  0  0  0  0  0  0  0  0
    8.0622    1.2500    0.0000 C   0  0  0  0  0  0  0  0  0  0  0  0
    8.9282    0.7500    0.0000 C   0  0  0  0  0  0  0  0  0  0  0  0
    3.1951    0.0600    0.0000 H   0  0  0  0  0  0  0  0  0  0  0  0
    4.0611    1.5600    0.0000 H   0  0  0  0  0  0  0  0  0  0  0  0
    5.1350   -1.4400    0.0000 H   0  0  0  0  0  0  0  0  0  0  0  0
    6.3301    0.6300    0.0000 H   0  0  0  0  0  0  0  0  0  0  0  0
    4.9272    3.0600    0.0000 H   0  0  0  0  0  0  0  0  0  0  0  0
    2.3291   -3.0600    0.0000 H   0  0  0  0  0  0  0  0  0  0  0  0
    6.3301    3.8700    0.0000 H   0  0  0  0  0  0  0  0  0  0  0  0
    3.7320   -3.8700    0.0000 H   0  0  0  0  0  0  0  0  0  0  0  0
    7.7331    3.0600    0.0000 H   0  0  0  0  0  0  0  0  0  0  0  0
    9.4651    0.4400    0.0000 H   0  0  0  0  0  0  0  0  0  0  0  0
  1  8  1  0  0  0  0
  2 14  1  0  0  0  0
  3 10  2  0  0  0  0
  4  6  1  0  0  0  0
  4 10  1  0  0  0  0
  4 21  1  0  0  0  0
  5  7  1  0  0  0  0
  5 10  1  0  0  0  0
  5 22  1  0  0  0  0
  6  8  2  0  0  0  0
  6  9  1  0  0  0  0
  7 11  1  0  0  0  0
  7 12  2  0  0  0  0
  8 15  1  0  0  0  0
  9 14  2  0  0  0  0
  9 23  1  0  0  0  0
 11 13  2  0  0  0  0
 11 24  1  0  0  0  0
 12 16  1  0  0  0  0
 12 25  1  0  0  0  0
 13 18  1  0  0  0  0
 13 19  1  0  0  0  0
 14 17  1  0  0  0  0
 15 17  2  0  0  0  0
 15 26  1  0  0  0  0
 16 18  2  0  0  0  0
 16 27  1  0  0  0  0
 17 28  1  0  0  0  0
 18 29  1  0  0  0  0
 19 20  3  0  0  0  0
 20 30  1  0  0  0  0
M  END
> <PUBCHEM_COMPOUND_CID>
61344323

> <PUBCHEM_COMPOUND_CANONICALIZED>
1

> <PUBCHEM_CACTVS_COMPLEXITY>
393

> <PUBCHEM_CACTVS_HBOND_ACCEPTOR>
1

> <PUBCHEM_CACTVS_HBOND_DONOR>
2

> <PUBCHEM_CACTVS_ROTATABLE_BOND>
3

> <PUBCHEM_CACTVS_SUBSKEYS>
AAADccBzIAAGAAAAAAAAAAAAAAAAAAAAAAAwYAAAAAAAAAABQAAAHgIQAAAADAqBGCAxwILAAADIGiRCUAiCAAAhBwAIiAAAZoiIICLBk5HEIAholAJIyCcQgAAOAAAQQAIAABAAACCABAAAIAAAAAAAAA==

> <PUBCHEM_IUPAC_OPENEYE_NAME>
1-(2,5-dichlorophenyl)-3-(3-ethynylphenyl)urea

> <PUBCHEM_IUPAC_CAS_NAME>
1-(2,5-dichlorophenyl)-3-(3-ethynylphenyl)urea

> <PUBCHEM_IUPAC_NAME>
1-(2,5-dichlorophenyl)-3-(3-ethynylphenyl)urea

> <PUBCHEM_IUPAC_SYSTEMATIC_NAME>
1-[2,5-bis(chloranyl)phenyl]-3-(3-ethynylphenyl)urea

> <PUBCHEM_IUPAC_TRADITIONAL_NAME>
1-(2,5-dichlorophenyl)-3-(3-ethynylphenyl)urea

> <PUBCHEM_IUPAC_INCHI>
InChI=1S/C15H10Cl2N2O/c1-2-10-4-3-5-12(8-10)18-15(20)19-14-9-11(16)6-7-13(14)17/h1,3-9H,(H2,18,19,20)

> <PUBCHEM_IUPAC_INCHIKEY>
OTCUJCZGUULDNQ-UHFFFAOYSA-N

> <PUBCHEM_XLOGP3>
3.8

> <PUBCHEM_EXACT_MASS>
304.017018

> <PUBCHEM_MOLECULAR_FORMULA>
C15H10Cl2N2O

> <PUBCHEM_MOLECULAR_WEIGHT>
305.1587

> <PUBCHEM_OPENEYE_CAN_SMILES>
C#CC1=CC(=CC=C1)NC(=O)NC2=C(C=CC(=C2)Cl)Cl

> <PUBCHEM_OPENEYE_ISO_SMILES>
C#CC1=CC(=CC=C1)NC(=O)NC2=C(C=CC(=C2)Cl)Cl

> <PUBCHEM_CACTVS_TPSA>
41.1

> <PUBCHEM_MONOISOTOPIC_WEIGHT>
304.017018

> <PUBCHEM_TOTAL_CHARGE>
0

> <PUBCHEM_HEAVY_ATOM_COUNT>
20

> <PUBCHEM_ATOM_DEF_STEREO_COUNT>
0

> <PUBCHEM_ATOM_UDEF_STEREO_COUNT>
0

> <PUBCHEM_BOND_DEF_STEREO_COUNT>
0

> <PUBCHEM_BOND_UDEF_STEREO_COUNT>
0

> <PUBCHEM_ISOTOPIC_ATOM_COUNT>
0

> <PUBCHEM_COMPONENT_COUNT>
1

> <PUBCHEM_CACTVS_TAUTO_COUNT>
3

> <PUBCHEM_COORDINATE_TYPE>
1
5
255

> <PUBCHEM_BONDANNOTATIONS>
11  13  8
12  16  8
13  18  8
14  17  8
15  17  8
16  18  8
6  8  8
6  9  8
7  11  8
7  12  8
8  15  8
9  14  8

$$$$
