18251544
  -OEChem-11301217222D

 64 64  0     1  0  0  0  0  0999 V2000
    3.7320    2.6356    0.0000 S   0  0  0  0  0  0  0  0  0  0  0  0
    7.1962   -2.3644    0.0000 S   0  0  0  0  0  0  0  0  0  0  0  0
    8.0622    2.1356    0.0000 O   0  0  0  0  0  0  0  0  0  0  0  0
    9.6994    4.5835    0.0000 O   0  0  0  0  0  0  0  0  0  0  0  0
    9.1641    2.9362    0.0000 O   0  0  0  0  0  0  0  0  0  0  0  0
    4.5981    1.1356    0.0000 O   0  0  0  0  0  0  0  0  0  0  0  0
    5.4641   -2.3644    0.0000 O   0  0  0  0  0  0  0  0  0  0  0  0
    2.8660   -4.8644    0.0000 O   0  0  0  0  0  0  0  0  0  0  0  0
    2.0000   -3.3644    0.0000 O   0  0  0  0  0  0  0  0  0  0  0  0
    7.1962    3.6356    0.0000 N   0  0  0  0  0  0  0  0  0  0  0  0
    6.3301    1.1356    0.0000 N   0  0  0  0  0  0  0  0  0  0  0  0
    4.5981   -0.8644    0.0000 N   0  0  0  0  0  0  0  0  0  0  0  0
    2.8660   -1.8644    0.0000 N   0  0  0  0  0  0  0  0  0  0  0  0
    8.0052    4.2234    0.0000 C   0  0  3  0  0  0  0  0  0  0  0  0
    7.6962    5.1744    0.0000 C   0  0  0  0  0  0  0  0  0  0  0  0
    6.6962    5.1744    0.0000 C   0  0  0  0  0  0  0  0  0  0  0  0
    6.3871    4.2234    0.0000 C   0  0  0  0  0  0  0  0  0  0  0  0
    7.1962    2.6356    0.0000 C   0  0  0  0  0  0  0  0  0  0  0  0
    6.3301    2.1356    0.0000 C   0  0  3  0  0  0  0  0  0  0  0  0
    8.9562    3.9144    0.0000 C   0  0  0  0  0  0  0  0  0  0  0  0
    5.4641    2.6356    0.0000 C   0  0  0  0  0  0  0  0  0  0  0  0
    5.4641   -0.3644    0.0000 C   0  0  3  0  0  0  0  0  0  0  0  0
    5.4641    0.6356    0.0000 C   0  0  0  0  0  0  0  0  0  0  0  0
    4.5981    2.1356    0.0000 C   0  0  0  0  0  0  0  0  0  0  0  0
    6.3301   -0.8644    0.0000 C   0  0  0  0  0  0  0  0  0  0  0  0
    6.3301   -1.8644    0.0000 C   0  0  0  0  0  0  0  0  0  0  0  0
    4.5981   -1.8644    0.0000 C   0  0  0  0  0  0  0  0  0  0  0  0
    3.7320   -2.3644    0.0000 C   0  0  3  0  0  0  0  0  0  0  0  0
    3.7320   -3.3644    0.0000 C   0  0  0  0  0  0  0  0  0  0  0  0
    2.8660    2.1356    0.0000 C   0  0  0  0  0  0  0  0  0  0  0  0
    7.1962   -3.3644    0.0000 C   0  0  0  0  0  0  0  0  0  0  0  0
    2.8660   -3.8644    0.0000 C   0  0  0  0  0  0  0  0  0  0  0  0
    8.1022    3.6110    0.0000 H   0  0  0  0  0  0  0  0  0  0  0  0
    8.3026    5.3033    0.0000 H   0  0  0  0  0  0  0  0  0  0  0  0
    7.6313    5.7910    0.0000 H   0  0  0  0  0  0  0  0  0  0  0  0
    6.7610    5.7910    0.0000 H   0  0  0  0  0  0  0  0  0  0  0  0
    6.0897    5.3033    0.0000 H   0  0  0  0  0  0  0  0  0  0  0  0
    5.8207    4.4755    0.0000 H   0  0  0  0  0  0  0  0  0  0  0  0
    6.0771    3.6864    0.0000 H   0  0  0  0  0  0  0  0  0  0  0  0
    6.8671    1.8256    0.0000 H   0  0  0  0  0  0  0  0  0  0  0  0
    5.8626    3.1105    0.0000 H   0  0  0  0  0  0  0  0  0  0  0  0
    5.0656    3.1105    0.0000 H   0  0  0  0  0  0  0  0  0  0  0  0
    6.8671    0.8256    0.0000 H   0  0  0  0  0  0  0  0  0  0  0  0
    5.4641   -0.9844    0.0000 H   0  0  0  0  0  0  0  0  0  0  0  0
    4.1996    1.6606    0.0000 H   0  0  0  0  0  0  0  0  0  0  0  0
    4.9966    1.6606    0.0000 H   0  0  0  0  0  0  0  0  0  0  0  0
    6.9407   -0.9721    0.0000 H   0  0  0  0  0  0  0  0  0  0  0  0
    6.5422   -0.2818    0.0000 H   0  0  0  0  0  0  0  0  0  0  0  0
    4.0611   -0.5544    0.0000 H   0  0  0  0  0  0  0  0  0  0  0  0
   10.2890    4.3919    0.0000 H   0  0  0  0  0  0  0  0  0  0  0  0
    5.7196   -1.7568    0.0000 H   0  0  0  0  0  0  0  0  0  0  0  0
    6.1181   -2.4470    0.0000 H   0  0  0  0  0  0  0  0  0  0  0  0
    3.7320   -1.7444    0.0000 H   0  0  0  0  0  0  0  0  0  0  0  0
    3.9441   -3.9470    0.0000 H   0  0  0  0  0  0  0  0  0  0  0  0
    4.3426   -3.2568    0.0000 H   0  0  0  0  0  0  0  0  0  0  0  0
    2.5560    2.6725    0.0000 H   0  0  0  0  0  0  0  0  0  0  0  0
    2.3291    1.8256    0.0000 H   0  0  0  0  0  0  0  0  0  0  0  0
    3.1760    1.5986    0.0000 H   0  0  0  0  0  0  0  0  0  0  0  0
    2.3291   -2.1744    0.0000 H   0  0  0  0  0  0  0  0  0  0  0  0
    2.8660   -1.2444    0.0000 H   0  0  0  0  0  0  0  0  0  0  0  0
    6.5762   -3.3644    0.0000 H   0  0  0  0  0  0  0  0  0  0  0  0
    7.1962   -3.9844    0.0000 H   0  0  0  0  0  0  0  0  0  0  0  0
    7.8162   -3.3644    0.0000 H   0  0  0  0  0  0  0  0  0  0  0  0
    2.3291   -5.1744    0.0000 H   0  0  0  0  0  0  0  0  0  0  0  0
  1 24  1  0  0  0  0
  1 30  1  0  0  0  0
  2 26  1  0  0  0  0
  2 31  1  0  0  0  0
  3 18  2  0  0  0  0
  4 20  1  0  0  0  0
  4 50  1  0  0  0  0
  5 20  2  0  0  0  0
  6 23  2  0  0  0  0
  7 27  2  0  0  0  0
  8 32  1  0  0  0  0
  8 64  1  0  0  0  0
  9 32  2  0  0  0  0
 10 14  1  0  0  0  0
 10 17  1  0  0  0  0
 10 18  1  0  0  0  0
 11 19  1  0  0  0  0
 11 23  1  0  0  0  0
 11 43  1  0  0  0  0
 12 22  1  0  0  0  0
 12 27  1  0  0  0  0
 12 49  1  0  0  0  0
 13 28  1  0  0  0  0
 13 59  1  0  0  0  0
 13 60  1  0  0  0  0
 14 15  1  0  0  0  0
 14 20  1  0  0  0  0
 14 33  1  0  0  0  0
 15 16  1  0  0  0  0
 15 34  1  0  0  0  0
 15 35  1  0  0  0  0
 16 17  1  0  0  0  0
 16 36  1  0  0  0  0
 16 37  1  0  0  0  0
 17 38  1  0  0  0  0
 17 39  1  0  0  0  0
 18 19  1  0  0  0  0
 19 21  1  0  0  0  0
 19 40  1  0  0  0  0
 21 24  1  0  0  0  0
 21 41  1  0  0  0  0
 21 42  1  0  0  0  0
 22 23  1  0  0  0  0
 22 25  1  0  0  0  0
 22 44  1  0  0  0  0
 24 45  1  0  0  0  0
 24 46  1  0  0  0  0
 25 26  1  0  0  0  0
 25 47  1  0  0  0  0
 25 48  1  0  0  0  0
 26 51  1  0  0  0  0
 26 52  1  0  0  0  0
 27 28  1  0  0  0  0
 28 29  1  0  0  0  0
 28 53  1  0  0  0  0
 29 32  1  0  0  0  0
 29 54  1  0  0  0  0
 29 55  1  0  0  0  0
 30 56  1  0  0  0  0
 30 57  1  0  0  0  0
 30 58  1  0  0  0  0
 31 61  1  0  0  0  0
 31 62  1  0  0  0  0
 31 63  1  0  0  0  0
M  END
> <PUBCHEM_COMPOUND_CID>
18251544

> <PUBCHEM_COMPOUND_CANONICALIZED>
1

> <PUBCHEM_CACTVS_COMPLEXITY>
695

> <PUBCHEM_CACTVS_HBOND_ACCEPTOR>
10

> <PUBCHEM_CACTVS_HBOND_DONOR>
5

> <PUBCHEM_CACTVS_ROTATABLE_BOND>
14

> <PUBCHEM_CACTVS_SUBSKEYS>
AAADcfB7uABgAAAAAAAAAAAAAAAAAWAAAAAAAAAAAAAAAAAAAAAAHgQQCAAACCjFwASCCAPAAggIAAGQGAAAAAAAABAAAIGIAAACQBoggCAUQAAGFgCQAAC/EQIAAAAAAAAAAAAAAAAAAAAAAAAAAAAAAA==

> <PUBCHEM_IUPAC_OPENEYE_NAME>
1-[2-[[2-[(2-amino-3-carboxy-propanoyl)amino]-4-methylsulfanyl-butanoyl]amino]-4-methylsulfanyl-butanoyl]pyrrolidine-2-carboxylic acid

> <PUBCHEM_IUPAC_CAS_NAME>
1-[2-[[2-[(2-amino-3-carboxy-1-oxopropyl)amino]-4-(methylthio)-1-oxobutyl]amino]-4-(methylthio)-1-oxobutyl]-2-pyrrolidinecarboxylic acid

> <PUBCHEM_IUPAC_NAME>
1-[2-[[2-[(2-amino-3-carboxypropanoyl)amino]-4-methylsulfanylbutanoyl]amino]-4-methylsulfanylbutanoyl]pyrrolidine-2-carboxylic acid

> <PUBCHEM_IUPAC_SYSTEMATIC_NAME>
1-[2-[[2-[(2-azanyl-4-oxidanyl-4-oxidanylidene-butanoyl)amino]-4-methylsulfanyl-butanoyl]amino]-4-methylsulfanyl-butanoyl]pyrrolidine-2-carboxylic acid

> <PUBCHEM_IUPAC_TRADITIONAL_NAME>
1-[2-[[2-[(2-amino-3-carboxy-propanoyl)amino]-4-(methylthio)butanoyl]amino]-4-(methylthio)butanoyl]proline

> <PUBCHEM_IUPAC_INCHI>
InChI=1S/C19H32N4O7S2/c1-31-8-5-12(21-16(26)11(20)10-15(24)25)17(27)22-13(6-9-32-2)18(28)23-7-3-4-14(23)19(29)30/h11-14H,3-10,20H2,1-2H3,(H,21,26)(H,22,27)(H,24,25)(H,29,30)

> <PUBCHEM_IUPAC_INCHIKEY>
DNBAETUOOLEURU-UHFFFAOYSA-N

> <PUBCHEM_XLOGP3>
-4.7

> <PUBCHEM_EXACT_MASS>
492.171241

> <PUBCHEM_MOLECULAR_FORMULA>
C19H32N4O7S2

> <PUBCHEM_MOLECULAR_WEIGHT>
492.60998

> <PUBCHEM_OPENEYE_CAN_SMILES>
CSCCC(C(=O)NC(CCSC)C(=O)N1CCCC1C(=O)O)NC(=O)C(CC(=O)O)N

> <PUBCHEM_OPENEYE_ISO_SMILES>
CSCCC(C(=O)NC(CCSC)C(=O)N1CCCC1C(=O)O)NC(=O)C(CC(=O)O)N

> <PUBCHEM_CACTVS_TPSA>
230

> <PUBCHEM_MONOISOTOPIC_WEIGHT>
492.171241

> <PUBCHEM_TOTAL_CHARGE>
0

> <PUBCHEM_HEAVY_ATOM_COUNT>
32

> <PUBCHEM_ATOM_DEF_STEREO_COUNT>
0

> <PUBCHEM_ATOM_UDEF_STEREO_COUNT>
4

> <PUBCHEM_BOND_DEF_STEREO_COUNT>
0

> <PUBCHEM_BOND_UDEF_STEREO_COUNT>
0

> <PUBCHEM_ISOTOPIC_ATOM_COUNT>
0

> <PUBCHEM_COMPONENT_COUNT>
1

> <PUBCHEM_CACTVS_TAUTO_COUNT>
4

> <PUBCHEM_COORDINATE_TYPE>
1
5
255

> <PUBCHEM_BONDANNOTATIONS>
28  13  3
14  20  3
19  21  3
22  25  3

$$$$
18251582
  -OEChem-11301217222D

 64 64  0     1  0  0  0  0  0999 V2000
    2.8660    1.1669    0.0000 S   0  0  0  0  0  0  0  0  0  0  0  0
   11.1513    0.5405    0.0000 S   0  0  0  0  0  0  0  0  0  0  0  0
    7.1962    0.6669    0.0000 O   0  0  0  0  0  0  0  0  0  0  0  0
    8.2981    1.4675    0.0000 O   0  0  0  0  0  0  0  0  0  0  0  0
    3.7320   -0.3331    0.0000 O   0  0  0  0  0  0  0  0  0  0  0  0
   11.4786    3.1659    0.0000 O   0  0  0  0  0  0  0  0  0  0  0  0
   10.3196    4.4531    0.0000 O   0  0  0  0  0  0  0  0  0  0  0  0
    2.8660   -3.8331    0.0000 O   0  0  0  0  0  0  0  0  0  0  0  0
    4.5981   -3.8331    0.0000 O   0  0  0  0  0  0  0  0  0  0  0  0
    6.3301    2.1669    0.0000 N   0  0  0  0  0  0  0  0  0  0  0  0
    8.8334    3.1148    0.0000 N   0  0  0  0  0  0  0  0  0  0  0  0
    5.4641   -0.3331    0.0000 N   0  0  0  0  0  0  0  0  0  0  0  0
    5.4641   -2.3331    0.0000 N   0  0  0  0  0  0  0  0  0  0  0  0
    7.1391    2.7547    0.0000 C   0  0  3  0  0  0  0  0  0  0  0  0
    6.8301    3.7058    0.0000 C   0  0  0  0  0  0  0  0  0  0  0  0
    5.8301    3.7058    0.0000 C   0  0  0  0  0  0  0  0  0  0  0  0
    5.5211    2.7547    0.0000 C   0  0  0  0  0  0  0  0  0  0  0  0
    6.3301    1.1669    0.0000 C   0  0  0  0  0  0  0  0  0  0  0  0
    8.0902    2.4457    0.0000 C   0  0  0  0  0  0  0  0  0  0  0  0
    5.4641    0.6669    0.0000 C   0  0  3  0  0  0  0  0  0  0  0  0
    4.5981    1.1669    0.0000 C   0  0  0  0  0  0  0  0  0  0  0  0
    9.7844    2.8058    0.0000 C   0  0  3  0  0  0  0  0  0  0  0  0
    3.7320    0.6669    0.0000 C   0  0  0  0  0  0  0  0  0  0  0  0
    9.9923    1.8276    0.0000 C   0  0  0  0  0  0  0  0  0  0  0  0
    4.5981   -0.8331    0.0000 C   0  0  0  0  0  0  0  0  0  0  0  0
    4.5981   -1.8331    0.0000 C   0  0  3  0  0  0  0  0  0  0  0  0
   10.5275    3.4749    0.0000 C   0  0  0  0  0  0  0  0  0  0  0  0
   10.9434    1.5186    0.0000 C   0  0  0  0  0  0  0  0  0  0  0  0
    3.7320   -2.3331    0.0000 C   0  0  0  0  0  0  0  0  0  0  0  0
    2.0000    0.6669    0.0000 C   0  0  0  0  0  0  0  0  0  0  0  0
    3.7320   -3.3331    0.0000 C   0  0  0  0  0  0  0  0  0  0  0  0
   12.1023    0.2315    0.0000 C   0  0  0  0  0  0  0  0  0  0  0  0
    7.2361    2.1423    0.0000 H   0  0  0  0  0  0  0  0  0  0  0  0
    7.4366    3.8347    0.0000 H   0  0  0  0  0  0  0  0  0  0  0  0
    6.7653    4.3224    0.0000 H   0  0  0  0  0  0  0  0  0  0  0  0
    5.8949    4.3224    0.0000 H   0  0  0  0  0  0  0  0  0  0  0  0
    5.2237    3.8347    0.0000 H   0  0  0  0  0  0  0  0  0  0  0  0
    4.9547    3.0069    0.0000 H   0  0  0  0  0  0  0  0  0  0  0  0
    5.2111    2.2178    0.0000 H   0  0  0  0  0  0  0  0  0  0  0  0
    6.0010    0.3569    0.0000 H   0  0  0  0  0  0  0  0  0  0  0  0
    4.9966    1.6419    0.0000 H   0  0  0  0  0  0  0  0  0  0  0  0
    4.1996    1.6419    0.0000 H   0  0  0  0  0  0  0  0  0  0  0  0
    8.7044    3.7213    0.0000 H   0  0  0  0  0  0  0  0  0  0  0  0
    9.6555    3.4122    0.0000 H   0  0  0  0  0  0  0  0  0  0  0  0
    6.0010   -0.6431    0.0000 H   0  0  0  0  0  0  0  0  0  0  0  0
    3.3335    0.1920    0.0000 H   0  0  0  0  0  0  0  0  0  0  0  0
    4.1306    0.1920    0.0000 H   0  0  0  0  0  0  0  0  0  0  0  0
    9.3727    1.8060    0.0000 H   0  0  0  0  0  0  0  0  0  0  0  0
    9.9060    1.2137    0.0000 H   0  0  0  0  0  0  0  0  0  0  0  0
    4.5981   -2.4531    0.0000 H   0  0  0  0  0  0  0  0  0  0  0  0
   11.5630    1.5403    0.0000 H   0  0  0  0  0  0  0  0  0  0  0  0
   11.0297    2.1326    0.0000 H   0  0  0  0  0  0  0  0  0  0  0  0
    3.5200   -1.7505    0.0000 H   0  0  0  0  0  0  0  0  0  0  0  0
    3.1215   -2.4407    0.0000 H   0  0  0  0  0  0  0  0  0  0  0  0
    5.4641   -2.9531    0.0000 H   0  0  0  0  0  0  0  0  0  0  0  0
    6.0010   -2.0231    0.0000 H   0  0  0  0  0  0  0  0  0  0  0  0
    1.6900    1.2039    0.0000 H   0  0  0  0  0  0  0  0  0  0  0  0
    1.4631    0.3569    0.0000 H   0  0  0  0  0  0  0  0  0  0  0  0
    2.3100    0.1300    0.0000 H   0  0  0  0  0  0  0  0  0  0  0  0
   11.9394    3.5808    0.0000 H   0  0  0  0  0  0  0  0  0  0  0  0
   11.9107   -0.3582    0.0000 H   0  0  0  0  0  0  0  0  0  0  0  0
   12.6920    0.0399    0.0000 H   0  0  0  0  0  0  0  0  0  0  0  0
   12.2939    0.8211    0.0000 H   0  0  0  0  0  0  0  0  0  0  0  0
    2.8660   -4.4531    0.0000 H   0  0  0  0  0  0  0  0  0  0  0  0
  1 23  1  0  0  0  0
  1 30  1  0  0  0  0
  2 28  1  0  0  0  0
  2 32  1  0  0  0  0
  3 18  2  0  0  0  0
  4 19  2  0  0  0  0
  5 25  2  0  0  0  0
  6 27  1  0  0  0  0
  6 60  1  0  0  0  0
  7 27  2  0  0  0  0
  8 31  1  0  0  0  0
  8 64  1  0  0  0  0
  9 31  2  0  0  0  0
 10 14  1  0  0  0  0
 10 17  1  0  0  0  0
 10 18  1  0  0  0  0
 11 19  1  0  0  0  0
 11 22  1  0  0  0  0
 11 43  1  0  0  0  0
 12 20  1  0  0  0  0
 12 25  1  0  0  0  0
 12 45  1  0  0  0  0
 13 26  1  0  0  0  0
 13 55  1  0  0  0  0
 13 56  1  0  0  0  0
 14 15  1  0  0  0  0
 14 19  1  0  0  0  0
 14 33  1  0  0  0  0
 15 16  1  0  0  0  0
 15 34  1  0  0  0  0
 15 35  1  0  0  0  0
 16 17  1  0  0  0  0
 16 36  1  0  0  0  0
 16 37  1  0  0  0  0
 17 38  1  0  0  0  0
 17 39  1  0  0  0  0
 18 20  1  0  0  0  0
 20 21  1  0  0  0  0
 20 40  1  0  0  0  0
 21 23  1  0  0  0  0
 21 41  1  0  0  0  0
 21 42  1  0  0  0  0
 22 24  1  0  0  0  0
 22 27  1  0  0  0  0
 22 44  1  0  0  0  0
 23 46  1  0  0  0  0
 23 47  1  0  0  0  0
 24 28  1  0  0  0  0
 24 48  1  0  0  0  0
 24 49  1  0  0  0  0
 25 26  1  0  0  0  0
 26 29  1  0  0  0  0
 26 50  1  0  0  0  0
 28 51  1  0  0  0  0
 28 52  1  0  0  0  0
 29 31  1  0  0  0  0
 29 53  1  0  0  0  0
 29 54  1  0  0  0  0
 30 57  1  0  0  0  0
 30 58  1  0  0  0  0
 30 59  1  0  0  0  0
 32 61  1  0  0  0  0
 32 62  1  0  0  0  0
 32 63  1  0  0  0  0
M  END
> <PUBCHEM_COMPOUND_CID>
18251582

> <PUBCHEM_COMPOUND_CANONICALIZED>
1

> <PUBCHEM_CACTVS_COMPLEXITY>
695

> <PUBCHEM_CACTVS_HBOND_ACCEPTOR>
10

> <PUBCHEM_CACTVS_HBOND_DONOR>
5

> <PUBCHEM_CACTVS_ROTATABLE_BOND>
14

> <PUBCHEM_CACTVS_SUBSKEYS>
AAADcfB7uABgAAAAAAAAAAAAAAAAAWAAAAAAAAAAAAAAAAAAAAAAHgQQCAAACCjFwASCCAPAAggIAAGQGAAAAAAAABAAAIGIAAACQBoggCAUQAAGFgCQAAA/AQAAAAAAAAAAAAAAAAAAAAAAAAAAAAAAAA==

> <PUBCHEM_IUPAC_OPENEYE_NAME>
3-amino-4-[[1-[2-[(1-carboxy-3-methylsulfanyl-propyl)carbamoyl]pyrrolidine-1-carbonyl]-3-methylsulfanyl-propyl]amino]-4-oxo-butanoic acid

> <PUBCHEM_IUPAC_CAS_NAME>
3-amino-4-[[1-[2-[[[1-carboxy-3-(methylthio)propyl]amino]-oxomethyl]-1-pyrrolidinyl]-4-(methylthio)-1-oxobutan-2-yl]amino]-4-oxobutanoic acid

> <PUBCHEM_IUPAC_NAME>
3-amino-4-[[1-[2-[(1-carboxy-3-methylsulfanylpropyl)carbamoyl]pyrrolidin-1-yl]-4-methylsulfanyl-1-oxobutan-2-yl]amino]-4-oxobutanoic acid

> <PUBCHEM_IUPAC_SYSTEMATIC_NAME>
3-azanyl-4-[[4-methylsulfanyl-1-[2-[(4-methylsulfanyl-1-oxidanyl-1-oxidanylidene-butan-2-yl)carbamoyl]pyrrolidin-1-yl]-1-oxidanylidene-butan-2-yl]amino]-4-oxidanylidene-butanoic acid

> <PUBCHEM_IUPAC_TRADITIONAL_NAME>
3-amino-4-[[1-[2-[[1-carboxy-3-(methylthio)propyl]carbamoyl]pyrrolidine-1-carbonyl]-3-(methylthio)propyl]amino]-4-keto-butyric acid

> <PUBCHEM_IUPAC_INCHI>
InChI=1S/C19H32N4O7S2/c1-31-8-5-12(21-16(26)11(20)10-15(24)25)18(28)23-7-3-4-14(23)17(27)22-13(19(29)30)6-9-32-2/h11-14H,3-10,20H2,1-2H3,(H,21,26)(H,22,27)(H,24,25)(H,29,30)

> <PUBCHEM_IUPAC_INCHIKEY>
IOEZROPOCXBRBK-UHFFFAOYSA-N

> <PUBCHEM_XLOGP3>
-4.6

> <PUBCHEM_EXACT_MASS>
492.171241

> <PUBCHEM_MOLECULAR_FORMULA>
C19H32N4O7S2

> <PUBCHEM_MOLECULAR_WEIGHT>
492.60998

> <PUBCHEM_OPENEYE_CAN_SMILES>
CSCCC(C(=O)N1CCCC1C(=O)NC(CCSC)C(=O)O)NC(=O)C(CC(=O)O)N

> <PUBCHEM_OPENEYE_ISO_SMILES>
CSCCC(C(=O)N1CCCC1C(=O)NC(CCSC)C(=O)O)NC(=O)C(CC(=O)O)N

> <PUBCHEM_CACTVS_TPSA>
230

> <PUBCHEM_MONOISOTOPIC_WEIGHT>
492.171241

> <PUBCHEM_TOTAL_CHARGE>
0

> <PUBCHEM_HEAVY_ATOM_COUNT>
32

> <PUBCHEM_ATOM_DEF_STEREO_COUNT>
0

> <PUBCHEM_ATOM_UDEF_STEREO_COUNT>
4

> <PUBCHEM_BOND_DEF_STEREO_COUNT>
0

> <PUBCHEM_BOND_UDEF_STEREO_COUNT>
0

> <PUBCHEM_ISOTOPIC_ATOM_COUNT>
0

> <PUBCHEM_COMPONENT_COUNT>
1

> <PUBCHEM_CACTVS_TAUTO_COUNT>
4

> <PUBCHEM_COORDINATE_TYPE>
1
5
255

> <PUBCHEM_BONDANNOTATIONS>
26  13  3
14  19  3
20  21  3
22  24  3

$$$$
18252341
  -OEChem-11301217222D

 64 64  0     1  0  0  0  0  0999 V2000
    9.4192   -1.9528    0.0000 S   0  0  0  0  0  0  0  0  0  0  0  0
   10.8170    3.9672    0.0000 S   0  0  0  0  0  0  0  0  0  0  0  0
    6.5661   -1.0257    0.0000 O   0  0  0  0  0  0  0  0  0  0  0  0
    5.4641   -1.8263    0.0000 O   0  0  0  0  0  0  0  0  0  0  0  0
    8.5876    1.9598    0.0000 O   0  0  0  0  0  0  0  0  0  0  0  0
    2.8660   -4.3263    0.0000 O   0  0  0  0  0  0  0  0  0  0  0  0
    2.0000   -2.8263    0.0000 O   0  0  0  0  0  0  0  0  0  0  0  0
   12.1839    1.7019    0.0000 O   0  0  0  0  0  0  0  0  0  0  0  0
   11.6487    0.0546    0.0000 O   0  0  0  0  0  0  0  0  0  0  0  0
    4.5981   -0.3263    0.0000 N   0  0  0  0  0  0  0  0  0  0  0  0
    7.1013    0.6216    0.0000 N   0  0  0  0  0  0  0  0  0  0  0  0
    2.8660   -1.3263    0.0000 N   0  0  0  0  0  0  0  0  0  0  0  0
    9.7465    0.6727    0.0000 N   0  0  0  0  0  0  0  0  0  0  0  0
    5.4071    0.2614    0.0000 C   0  0  3  0  0  0  0  0  0  0  0  0
    5.0981    1.2125    0.0000 C   0  0  0  0  0  0  0  0  0  0  0  0
    4.0981    1.2125    0.0000 C   0  0  0  0  0  0  0  0  0  0  0  0
    3.7891    0.2614    0.0000 C   0  0  0  0  0  0  0  0  0  0  0  0
    6.3582   -0.0476    0.0000 C   0  0  0  0  0  0  0  0  0  0  0  0
    4.5981   -1.3263    0.0000 C   0  0  0  0  0  0  0  0  0  0  0  0
    3.7320   -1.8263    0.0000 C   0  0  3  0  0  0  0  0  0  0  0  0
    8.0524    0.3125    0.0000 C   0  0  3  0  0  0  0  0  0  0  0  0
    8.2603   -0.6656    0.0000 C   0  0  0  0  0  0  0  0  0  0  0  0
    3.7320   -2.8263    0.0000 C   0  0  0  0  0  0  0  0  0  0  0  0
    8.7955    0.9817    0.0000 C   0  0  0  0  0  0  0  0  0  0  0  0
    9.2113   -0.9746    0.0000 C   0  0  0  0  0  0  0  0  0  0  0  0
   10.4897    1.3418    0.0000 C   0  0  3  0  0  0  0  0  0  0  0  0
   10.2818    2.3199    0.0000 C   0  0  0  0  0  0  0  0  0  0  0  0
    2.8660   -3.3263    0.0000 C   0  0  0  0  0  0  0  0  0  0  0  0
   11.0249    2.9891    0.0000 C   0  0  0  0  0  0  0  0  0  0  0  0
   11.4408    1.0328    0.0000 C   0  0  0  0  0  0  0  0  0  0  0  0
   10.3703   -2.2618    0.0000 C   0  0  0  0  0  0  0  0  0  0  0  0
   11.5602    4.6363    0.0000 C   0  0  0  0  0  0  0  0  0  0  0  0
    5.5041   -0.3509    0.0000 H   0  0  0  0  0  0  0  0  0  0  0  0
    5.7045    1.3414    0.0000 H   0  0  0  0  0  0  0  0  0  0  0  0
    5.0333    1.8291    0.0000 H   0  0  0  0  0  0  0  0  0  0  0  0
    4.1629    1.8291    0.0000 H   0  0  0  0  0  0  0  0  0  0  0  0
    3.4916    1.3414    0.0000 H   0  0  0  0  0  0  0  0  0  0  0  0
    3.2227    0.5136    0.0000 H   0  0  0  0  0  0  0  0  0  0  0  0
    3.4791   -0.2755    0.0000 H   0  0  0  0  0  0  0  0  0  0  0  0
    3.7320   -1.2063    0.0000 H   0  0  0  0  0  0  0  0  0  0  0  0
    6.9724    1.2280    0.0000 H   0  0  0  0  0  0  0  0  0  0  0  0
    7.9234    0.9190    0.0000 H   0  0  0  0  0  0  0  0  0  0  0  0
    7.6406   -0.6872    0.0000 H   0  0  0  0  0  0  0  0  0  0  0  0
    8.1740   -1.2796    0.0000 H   0  0  0  0  0  0  0  0  0  0  0  0
    3.9441   -3.4090    0.0000 H   0  0  0  0  0  0  0  0  0  0  0  0
    4.3426   -2.7187    0.0000 H   0  0  0  0  0  0  0  0  0  0  0  0
    2.3291   -1.6363    0.0000 H   0  0  0  0  0  0  0  0  0  0  0  0
    2.8660   -0.7063    0.0000 H   0  0  0  0  0  0  0  0  0  0  0  0
    9.8309   -0.9530    0.0000 H   0  0  0  0  0  0  0  0  0  0  0  0
    9.2976   -0.3607    0.0000 H   0  0  0  0  0  0  0  0  0  0  0  0
    9.8755    0.0662    0.0000 H   0  0  0  0  0  0  0  0  0  0  0  0
   10.6186    0.7353    0.0000 H   0  0  0  0  0  0  0  0  0  0  0  0
    9.9532    2.8457    0.0000 H   0  0  0  0  0  0  0  0  0  0  0  0
    9.7069    2.0877    0.0000 H   0  0  0  0  0  0  0  0  0  0  0  0
   11.3535    2.4633    0.0000 H   0  0  0  0  0  0  0  0  0  0  0  0
   11.5998    3.2213    0.0000 H   0  0  0  0  0  0  0  0  0  0  0  0
   10.1787   -2.8514    0.0000 H   0  0  0  0  0  0  0  0  0  0  0  0
   10.9599   -2.4534    0.0000 H   0  0  0  0  0  0  0  0  0  0  0  0
   10.5619   -1.6721    0.0000 H   0  0  0  0  0  0  0  0  0  0  0  0
    2.3291   -4.6363    0.0000 H   0  0  0  0  0  0  0  0  0  0  0  0
   12.7736    1.5103    0.0000 H   0  0  0  0  0  0  0  0  0  0  0  0
   11.9750    4.1756    0.0000 H   0  0  0  0  0  0  0  0  0  0  0  0
   12.0209    5.0512    0.0000 H   0  0  0  0  0  0  0  0  0  0  0  0
   11.1453    5.0971    0.0000 H   0  0  0  0  0  0  0  0  0  0  0  0
  1 25  1  0  0  0  0
  1 31  1  0  0  0  0
  2 29  1  0  0  0  0
  2 32  1  0  0  0  0
  3 18  2  0  0  0  0
  4 19  2  0  0  0  0
  5 24  2  0  0  0  0
  6 28  1  0  0  0  0
  6 60  1  0  0  0  0
  7 28  2  0  0  0  0
  8 30  1  0  0  0  0
  8 61  1  0  0  0  0
  9 30  2  0  0  0  0
 10 14  1  0  0  0  0
 10 17  1  0  0  0  0
 10 19  1  0  0  0  0
 11 18  1  0  0  0  0
 11 21  1  0  0  0  0
 11 41  1  0  0  0  0
 12 20  1  0  0  0  0
 12 47  1  0  0  0  0
 12 48  1  0  0  0  0
 13 24  1  0  0  0  0
 13 26  1  0  0  0  0
 13 51  1  0  0  0  0
 14 15  1  0  0  0  0
 14 18  1  0  0  0  0
 14 33  1  0  0  0  0
 15 16  1  0  0  0  0
 15 34  1  0  0  0  0
 15 35  1  0  0  0  0
 16 17  1  0  0  0  0
 16 36  1  0  0  0  0
 16 37  1  0  0  0  0
 17 38  1  0  0  0  0
 17 39  1  0  0  0  0
 19 20  1  0  0  0  0
 20 23  1  0  0  0  0
 20 40  1  0  0  0  0
 21 22  1  0  0  0  0
 21 24  1  0  0  0  0
 21 42  1  0  0  0  0
 22 25  1  0  0  0  0
 22 43  1  0  0  0  0
 22 44  1  0  0  0  0
 23 28  1  0  0  0  0
 23 45  1  0  0  0  0
 23 46  1  0  0  0  0
 25 49  1  0  0  0  0
 25 50  1  0  0  0  0
 26 27  1  0  0  0  0
 26 30  1  0  0  0  0
 26 52  1  0  0  0  0
 27 29  1  0  0  0  0
 27 53  1  0  0  0  0
 27 54  1  0  0  0  0
 29 55  1  0  0  0  0
 29 56  1  0  0  0  0
 31 57  1  0  0  0  0
 31 58  1  0  0  0  0
 31 59  1  0  0  0  0
 32 62  1  0  0  0  0
 32 63  1  0  0  0  0
 32 64  1  0  0  0  0
M  END
> <PUBCHEM_COMPOUND_CID>
18252341

> <PUBCHEM_COMPOUND_CANONICALIZED>
1

> <PUBCHEM_CACTVS_COMPLEXITY>
695

> <PUBCHEM_CACTVS_HBOND_ACCEPTOR>
10

> <PUBCHEM_CACTVS_HBOND_DONOR>
5

> <PUBCHEM_CACTVS_ROTATABLE_BOND>
14

> <PUBCHEM_CACTVS_SUBSKEYS>
AAADcfB7uABgAAAAAAAAAAAAAAAAAWAAAAAAAAAAAAAAAAAAAAAAHgQQCAAACCjFwASCCAPAAggIAAGQGAAAAAAAABAAAIGIAAACQBoggCAUQAAGFgCQAAA/AQAAAAAAAAAAAAAAAAAAAAAAAAAAAAAAAA==

> <PUBCHEM_IUPAC_OPENEYE_NAME>
3-amino-4-[2-[[1-[(1-carboxy-3-methylsulfanyl-propyl)carbamoyl]-3-methylsulfanyl-propyl]carbamoyl]pyrrolidin-1-yl]-4-oxo-butanoic acid

> <PUBCHEM_IUPAC_CAS_NAME>
3-amino-4-[2-[[[1-[[1-carboxy-3-(methylthio)propyl]amino]-4-(methylthio)-1-oxobutan-2-yl]amino]-oxomethyl]-1-pyrrolidinyl]-4-oxobutanoic acid

> <PUBCHEM_IUPAC_NAME>
3-amino-4-[2-[[1-[(1-carboxy-3-methylsulfanylpropyl)amino]-4-methylsulfanyl-1-oxobutan-2-yl]carbamoyl]pyrrolidin-1-yl]-4-oxobutanoic acid

> <PUBCHEM_IUPAC_SYSTEMATIC_NAME>
3-azanyl-4-[2-[[4-methylsulfanyl-1-[(4-methylsulfanyl-1-oxidanyl-1-oxidanylidene-butan-2-yl)amino]-1-oxidanylidene-butan-2-yl]carbamoyl]pyrrolidin-1-yl]-4-oxidanylidene-butanoic acid

> <PUBCHEM_IUPAC_TRADITIONAL_NAME>
3-amino-4-[2-[[1-[[1-carboxy-3-(methylthio)propyl]carbamoyl]-3-(methylthio)propyl]carbamoyl]pyrrolidino]-4-keto-butyric acid

> <PUBCHEM_IUPAC_INCHI>
InChI=1S/C19H32N4O7S2/c1-31-8-5-12(16(26)22-13(19(29)30)6-9-32-2)21-17(27)14-4-3-7-23(14)18(28)11(20)10-15(24)25/h11-14H,3-10,20H2,1-2H3,(H,21,27)(H,22,26)(H,24,25)(H,29,30)

> <PUBCHEM_IUPAC_INCHIKEY>
JISTYQXOWXJXKJ-UHFFFAOYSA-N

> <PUBCHEM_XLOGP3>
-4.5

> <PUBCHEM_EXACT_MASS>
492.171241

> <PUBCHEM_MOLECULAR_FORMULA>
C19H32N4O7S2

> <PUBCHEM_MOLECULAR_WEIGHT>
492.60998

> <PUBCHEM_OPENEYE_CAN_SMILES>
CSCCC(C(=O)NC(CCSC)C(=O)O)NC(=O)C1CCCN1C(=O)C(CC(=O)O)N

> <PUBCHEM_OPENEYE_ISO_SMILES>
CSCCC(C(=O)NC(CCSC)C(=O)O)NC(=O)C1CCCN1C(=O)C(CC(=O)O)N

> <PUBCHEM_CACTVS_TPSA>
230

> <PUBCHEM_MONOISOTOPIC_WEIGHT>
492.171241

> <PUBCHEM_TOTAL_CHARGE>
0

> <PUBCHEM_HEAVY_ATOM_COUNT>
32

> <PUBCHEM_ATOM_DEF_STEREO_COUNT>
0

> <PUBCHEM_ATOM_UDEF_STEREO_COUNT>
4

> <PUBCHEM_BOND_DEF_STEREO_COUNT>
0

> <PUBCHEM_BOND_UDEF_STEREO_COUNT>
0

> <PUBCHEM_ISOTOPIC_ATOM_COUNT>
0

> <PUBCHEM_COMPONENT_COUNT>
1

> <PUBCHEM_CACTVS_TAUTO_COUNT>
4

> <PUBCHEM_COORDINATE_TYPE>
1
5
255

> <PUBCHEM_BONDANNOTATIONS>
20  12  3
14  18  3
21  22  3
26  27  3

$$$$
18264733
  -OEChem-11301217232D

 63 64  0     1  0  0  0  0  0999 V2000
    8.8351    1.7810    0.0000 O   0  0  0  0  0  0  0  0  0  0  0  0
    7.7331    0.9804    0.0000 O   0  0  0  0  0  0  0  0  0  0  0  0
   11.7497    2.2023    0.0000 O   0  0  0  0  0  0  0  0  0  0  0  0
   10.1674    1.4978    0.0000 O   0  0  0  0  0  0  0  0  0  0  0  0
    4.2690   -0.0196    0.0000 O   0  0  0  0  0  0  0  0  0  0  0  0
    2.5369    0.9804    0.0000 O   0  0  0  0  0  0  0  0  0  0  0  0
    3.4030    2.4804    0.0000 O   0  0  0  0  0  0  0  0  0  0  0  0
    6.8671   -4.5196    0.0000 O   0  0  0  0  0  0  0  0  0  0  0  0
    7.7331   -3.0196    0.0000 O   0  0  0  0  0  0  0  0  0  0  0  0
    6.8671    2.4804    0.0000 N   0  0  0  0  0  0  0  0  0  0  0  0
    9.3703    3.4283    0.0000 N   0  0  0  0  0  0  0  0  0  0  0  0
    6.0010   -0.0196    0.0000 N   0  0  0  0  0  0  0  0  0  0  0  0
    4.2690   -2.0196    0.0000 N   0  0  0  0  0  0  0  0  0  0  0  0
    7.6761    3.0682    0.0000 C   0  0  3  0  0  0  0  0  0  0  0  0
    7.3671    4.0193    0.0000 C   0  0  0  0  0  0  0  0  0  0  0  0
    6.3671    4.0193    0.0000 C   0  0  0  0  0  0  0  0  0  0  0  0
    6.0580    3.0682    0.0000 C   0  0  0  0  0  0  0  0  0  0  0  0
   10.3484    3.2204    0.0000 C   0  0  3  0  0  0  0  0  0  0  0  0
    8.6271    2.7592    0.0000 C   0  0  0  0  0  0  0  0  0  0  0  0
    9.2658    4.4228    0.0000 C   0  0  0  0  0  0  0  0  0  0  0  0
   10.8484    4.0864    0.0000 C   0  0  0  0  0  0  0  0  0  0  0  0
   10.1793    4.8296    0.0000 C   0  0  0  0  0  0  0  0  0  0  0  0
    6.8671    1.4804    0.0000 C   0  0  0  0  0  0  0  0  0  0  0  0
    6.0010    0.9804    0.0000 C   0  0  3  0  0  0  0  0  0  0  0  0
   10.7552    2.3069    0.0000 C   0  0  0  0  0  0  0  0  0  0  0  0
    5.1350    1.4804    0.0000 C   0  0  0  0  0  0  0  0  0  0  0  0
    4.2690    0.9804    0.0000 C   0  0  0  0  0  0  0  0  0  0  0  0
    5.1350   -0.5196    0.0000 C   0  0  0  0  0  0  0  0  0  0  0  0
    5.1350   -1.5196    0.0000 C   0  0  3  0  0  0  0  0  0  0  0  0
    6.0010   -2.0196    0.0000 C   0  0  0  0  0  0  0  0  0  0  0  0
    3.4030    1.4804    0.0000 C   0  0  0  0  0  0  0  0  0  0  0  0
    6.0010   -3.0196    0.0000 C   0  0  0  0  0  0  0  0  0  0  0  0
    6.8671   -3.5196    0.0000 C   0  0  0  0  0  0  0  0  0  0  0  0
    7.7731    2.4558    0.0000 H   0  0  0  0  0  0  0  0  0  0  0  0
    7.9735    4.1482    0.0000 H   0  0  0  0  0  0  0  0  0  0  0  0
    7.3022    4.6359    0.0000 H   0  0  0  0  0  0  0  0  0  0  0  0
    6.4319    4.6359    0.0000 H   0  0  0  0  0  0  0  0  0  0  0  0
    5.7606    4.1482    0.0000 H   0  0  0  0  0  0  0  0  0  0  0  0
    5.4916    3.3204    0.0000 H   0  0  0  0  0  0  0  0  0  0  0  0
    5.7480    2.5313    0.0000 H   0  0  0  0  0  0  0  0  0  0  0  0
    9.9582    2.7386    0.0000 H   0  0  0  0  0  0  0  0  0  0  0  0
    9.0742    5.0125    0.0000 H   0  0  0  0  0  0  0  0  0  0  0  0
    8.6593    4.2939    0.0000 H   0  0  0  0  0  0  0  0  0  0  0  0
   11.3500    3.7220    0.0000 H   0  0  0  0  0  0  0  0  0  0  0  0
   11.2633    4.5472    0.0000 H   0  0  0  0  0  0  0  0  0  0  0  0
   10.6809    5.1940    0.0000 H   0  0  0  0  0  0  0  0  0  0  0  0
    9.8693    5.3665    0.0000 H   0  0  0  0  0  0  0  0  0  0  0  0
    6.5380    0.6704    0.0000 H   0  0  0  0  0  0  0  0  0  0  0  0
    5.5335    1.9554    0.0000 H   0  0  0  0  0  0  0  0  0  0  0  0
    4.7365    1.9554    0.0000 H   0  0  0  0  0  0  0  0  0  0  0  0
    6.5380   -0.3296    0.0000 H   0  0  0  0  0  0  0  0  0  0  0  0
    3.8705    0.5055    0.0000 H   0  0  0  0  0  0  0  0  0  0  0  0
    4.6675    0.5055    0.0000 H   0  0  0  0  0  0  0  0  0  0  0  0
    5.1350   -2.1396    0.0000 H   0  0  0  0  0  0  0  0  0  0  0  0
   12.0019    1.6359    0.0000 H   0  0  0  0  0  0  0  0  0  0  0  0
    6.6116   -2.1272    0.0000 H   0  0  0  0  0  0  0  0  0  0  0  0
    6.2131   -1.4370    0.0000 H   0  0  0  0  0  0  0  0  0  0  0  0
    5.3905   -2.9119    0.0000 H   0  0  0  0  0  0  0  0  0  0  0  0
    5.7890   -3.6022    0.0000 H   0  0  0  0  0  0  0  0  0  0  0  0
    4.2690   -2.6396    0.0000 H   0  0  0  0  0  0  0  0  0  0  0  0
    3.7320   -1.7096    0.0000 H   0  0  0  0  0  0  0  0  0  0  0  0
    2.0000    1.2904    0.0000 H   0  0  0  0  0  0  0  0  0  0  0  0
    7.4040   -4.8296    0.0000 H   0  0  0  0  0  0  0  0  0  0  0  0
  1 19  2  0  0  0  0
  2 23  2  0  0  0  0
  3 25  1  0  0  0  0
  3 55  1  0  0  0  0
  4 25  2  0  0  0  0
  5 28  2  0  0  0  0
  6 31  1  0  0  0  0
  6 62  1  0  0  0  0
  7 31  2  0  0  0  0
  8 33  1  0  0  0  0
  8 63  1  0  0  0  0
  9 33  2  0  0  0  0
 10 14  1  0  0  0  0
 10 17  1  0  0  0  0
 10 23  1  0  0  0  0
 11 18  1  0  0  0  0
 11 19  1  0  0  0  0
 11 20  1  0  0  0  0
 12 24  1  0  0  0  0
 12 28  1  0  0  0  0
 12 51  1  0  0  0  0
 13 29  1  0  0  0  0
 13 60  1  0  0  0  0
 13 61  1  0  0  0  0
 14 15  1  0  0  0  0
 14 19  1  0  0  0  0
 14 34  1  0  0  0  0
 15 16  1  0  0  0  0
 15 35  1  0  0  0  0
 15 36  1  0  0  0  0
 16 17  1  0  0  0  0
 16 37  1  0  0  0  0
 16 38  1  0  0  0  0
 17 39  1  0  0  0  0
 17 40  1  0  0  0  0
 18 21  1  0  0  0  0
 18 25  1  0  0  0  0
 18 41  1  0  0  0  0
 20 22  1  0  0  0  0
 20 42  1  0  0  0  0
 20 43  1  0  0  0  0
 21 22  1  0  0  0  0
 21 44  1  0  0  0  0
 21 45  1  0  0  0  0
 22 46  1  0  0  0  0
 22 47  1  0  0  0  0
 23 24  1  0  0  0  0
 24 26  1  0  0  0  0
 24 48  1  0  0  0  0
 26 27  1  0  0  0  0
 26 49  1  0  0  0  0
 26 50  1  0  0  0  0
 27 31  1  0  0  0  0
 27 52  1  0  0  0  0
 27 53  1  0  0  0  0
 28 29  1  0  0  0  0
 29 30  1  0  0  0  0
 29 54  1  0  0  0  0
 30 32  1  0  0  0  0
 30 56  1  0  0  0  0
 30 57  1  0  0  0  0
 32 33  1  0  0  0  0
 32 58  1  0  0  0  0
 32 59  1  0  0  0  0
M  END
> <PUBCHEM_COMPOUND_CID>
18264733

> <PUBCHEM_COMPOUND_CANONICALIZED>
1

> <PUBCHEM_CACTVS_COMPLEXITY>
802

> <PUBCHEM_CACTVS_HBOND_ACCEPTOR>
10

> <PUBCHEM_CACTVS_HBOND_DONOR>
5

> <PUBCHEM_CACTVS_ROTATABLE_BOND>
11

> <PUBCHEM_CACTVS_SUBSKEYS>
AAADceB7vAAAAAAAAAAAAAAAAAAAAWLAAAAAAAAAAAAAAAAAAAAAHgAQCAAACCjBgAQACAPAAgAIAAGQGAAAAAAAAAAAAIGIAAACQBIAgCAUQAAEFgCQAAC8FwIAAAAAAAAAAAAAAAAAAAAAAAAAAAAAAA==

> <PUBCHEM_IUPAC_OPENEYE_NAME>
1-[1-[2-[(2-amino-4-carboxy-butanoyl)amino]-4-carboxy-butanoyl]pyrrolidine-2-carbonyl]pyrrolidine-2-carboxylic acid

> <PUBCHEM_IUPAC_CAS_NAME>
1-[[1-[2-[(2-amino-4-carboxy-1-oxobutyl)amino]-4-carboxy-1-oxobutyl]-2-pyrrolidinyl]-oxomethyl]-2-pyrrolidinecarboxylic acid

> <PUBCHEM_IUPAC_NAME>
1-[1-[2-[(2-amino-4-carboxybutanoyl)amino]-4-carboxybutanoyl]pyrrolidine-2-carbonyl]pyrrolidine-2-carboxylic acid

> <PUBCHEM_IUPAC_SYSTEMATIC_NAME>
1-[1-[2-[(2-azanyl-5-oxidanyl-5-oxidanylidene-pentanoyl)amino]-5-oxidanyl-5-oxidanylidene-pentanoyl]pyrrolidin-2-yl]carbonylpyrrolidine-2-carboxylic acid

> <PUBCHEM_IUPAC_TRADITIONAL_NAME>
1-[1-[2-[(2-amino-4-carboxy-butanoyl)amino]-4-carboxy-butanoyl]prolyl]proline

> <PUBCHEM_IUPAC_INCHI>
InChI=1S/C20H30N4O9/c21-11(5-7-15(25)26)17(29)22-12(6-8-16(27)28)18(30)23-9-1-3-13(23)19(31)24-10-2-4-14(24)20(32)33/h11-14H,1-10,21H2,(H,22,29)(H,25,26)(H,27,28)(H,32,33)

> <PUBCHEM_IUPAC_INCHIKEY>
OETTZTUYGHJKHV-UHFFFAOYSA-N

> <PUBCHEM_XLOGP3>
-5.2

> <PUBCHEM_EXACT_MASS>
470.201279

> <PUBCHEM_MOLECULAR_FORMULA>
C20H30N4O9

> <PUBCHEM_MOLECULAR_WEIGHT>
470.4736

> <PUBCHEM_OPENEYE_CAN_SMILES>
C1CC(N(C1)C(=O)C2CCCN2C(=O)C(CCC(=O)O)NC(=O)C(CCC(=O)O)N)C(=O)O

> <PUBCHEM_OPENEYE_ISO_SMILES>
C1CC(N(C1)C(=O)C2CCCN2C(=O)C(CCC(=O)O)NC(=O)C(CCC(=O)O)N)C(=O)O

> <PUBCHEM_CACTVS_TPSA>
208

> <PUBCHEM_MONOISOTOPIC_WEIGHT>
470.201279

> <PUBCHEM_TOTAL_CHARGE>
0

> <PUBCHEM_HEAVY_ATOM_COUNT>
33

> <PUBCHEM_ATOM_DEF_STEREO_COUNT>
0

> <PUBCHEM_ATOM_UDEF_STEREO_COUNT>
4

> <PUBCHEM_BOND_DEF_STEREO_COUNT>
0

> <PUBCHEM_BOND_UDEF_STEREO_COUNT>
0

> <PUBCHEM_ISOTOPIC_ATOM_COUNT>
0

> <PUBCHEM_COMPONENT_COUNT>
1

> <PUBCHEM_CACTVS_TAUTO_COUNT>
2

> <PUBCHEM_COORDINATE_TYPE>
1
5
255

> <PUBCHEM_BONDANNOTATIONS>
29  13  3
14  19  3
18  25  3
24  26  3

$$$$
18266627
  -OEChem-11301217232D

 50 51  0     0  0  0  0  0  0999 V2000
    5.4641   -1.2500    0.0000 O   0  0  0  0  0  0  0  0  0  0  0  0
    3.7320   -1.2500    0.0000 N   0  0  0  0  0  0  0  0  0  0  0  0
    4.5981    2.2500    0.0000 C   0  0  0  0  0  0  0  0  0  0  0  0
    4.5981    3.2500    0.0000 C   0  0  0  0  0  0  0  0  0  0  0  0
    3.7320    1.7500    0.0000 C   0  0  0  0  0  0  0  0  0  0  0  0
    5.4641    1.7500    0.0000 C   0  0  0  0  0  0  0  0  0  0  0  0
    4.5981    0.2500    0.0000 C   0  0  0  0  0  0  0  0  0  0  0  0
    3.7320    0.7500    0.0000 C   0  0  0  0  0  0  0  0  0  0  0  0
    5.4641    0.7500    0.0000 C   0  0  0  0  0  0  0  0  0  0  0  0
    4.5981    4.2500    0.0000 C   0  0  0  0  0  0  0  0  0  0  0  0
    5.5981    3.2500    0.0000 C   0  0  0  0  0  0  0  0  0  0  0  0
    3.5981    3.2500    0.0000 C   0  0  0  0  0  0  0  0  0  0  0  0
    4.5981   -0.7500    0.0000 C   0  0  0  0  0  0  0  0  0  0  0  0
    3.7320   -2.2500    0.0000 C   0  0  0  0  0  0  0  0  0  0  0  0
    2.8660   -2.7500    0.0000 C   0  0  0  0  0  0  0  0  0  0  0  0
    4.5981   -2.7500    0.0000 C   0  0  0  0  0  0  0  0  0  0  0  0
    2.8660   -3.7500    0.0000 C   0  0  0  0  0  0  0  0  0  0  0  0
    2.0000   -2.2500    0.0000 C   0  0  0  0  0  0  0  0  0  0  0  0
    4.5981   -3.7500    0.0000 C   0  0  0  0  0  0  0  0  0  0  0  0
    3.7320   -4.2500    0.0000 C   0  0  0  0  0  0  0  0  0  0  0  0
    2.0000   -4.2500    0.0000 C   0  0  0  0  0  0  0  0  0  0  0  0
    5.1350    2.5600    0.0000 H   0  0  0  0  0  0  0  0  0  0  0  0
    6.0747    1.6423    0.0000 H   0  0  0  0  0  0  0  0  0  0  0  0
    5.6762    2.3326    0.0000 H   0  0  0  0  0  0  0  0  0  0  0  0
    3.5200    2.3326    0.0000 H   0  0  0  0  0  0  0  0  0  0  0  0
    3.1215    1.6423    0.0000 H   0  0  0  0  0  0  0  0  0  0  0  0
    5.1350   -0.0600    0.0000 H   0  0  0  0  0  0  0  0  0  0  0  0
    5.6762    0.1674    0.0000 H   0  0  0  0  0  0  0  0  0  0  0  0
    6.0747    0.8577    0.0000 H   0  0  0  0  0  0  0  0  0  0  0  0
    3.1215    0.8577    0.0000 H   0  0  0  0  0  0  0  0  0  0  0  0
    3.5200    0.1674    0.0000 H   0  0  0  0  0  0  0  0  0  0  0  0
    3.5981    3.8700    0.0000 H   0  0  0  0  0  0  0  0  0  0  0  0
    5.2181    4.2500    0.0000 H   0  0  0  0  0  0  0  0  0  0  0  0
    4.5981    4.8700    0.0000 H   0  0  0  0  0  0  0  0  0  0  0  0
    3.9781    4.2500    0.0000 H   0  0  0  0  0  0  0  0  0  0  0  0
    5.5981    2.6300    0.0000 H   0  0  0  0  0  0  0  0  0  0  0  0
    6.2181    3.2500    0.0000 H   0  0  0  0  0  0  0  0  0  0  0  0
    5.5981    3.8700    0.0000 H   0  0  0  0  0  0  0  0  0  0  0  0
    2.9781    3.2500    0.0000 H   0  0  0  0  0  0  0  0  0  0  0  0
    3.5981    2.6300    0.0000 H   0  0  0  0  0  0  0  0  0  0  0  0
    3.1951   -0.9400    0.0000 H   0  0  0  0  0  0  0  0  0  0  0  0
    5.1350   -2.4400    0.0000 H   0  0  0  0  0  0  0  0  0  0  0  0
    2.3100   -1.7131    0.0000 H   0  0  0  0  0  0  0  0  0  0  0  0
    1.4631   -1.9400    0.0000 H   0  0  0  0  0  0  0  0  0  0  0  0
    1.6900   -2.7869    0.0000 H   0  0  0  0  0  0  0  0  0  0  0  0
    5.1350   -4.0600    0.0000 H   0  0  0  0  0  0  0  0  0  0  0  0
    3.7320   -4.8700    0.0000 H   0  0  0  0  0  0  0  0  0  0  0  0
    1.6900   -3.7131    0.0000 H   0  0  0  0  0  0  0  0  0  0  0  0
    1.4631   -4.5600    0.0000 H   0  0  0  0  0  0  0  0  0  0  0  0
    2.3100   -4.7869    0.0000 H   0  0  0  0  0  0  0  0  0  0  0  0
  1 13  2  0  0  0  0
  2 13  1  0  0  0  0
  2 14  1  0  0  0  0
  2 41  1  0  0  0  0
  3  4  1  0  0  0  0
  3  5  1  0  0  0  0
  3  6  1  0  0  0  0
  3 22  1  0  0  0  0
  4 10  1  0  0  0  0
  4 11  1  0  0  0  0
  4 12  1  0  0  0  0
  5  8  1  0  0  0  0
  5 25  1  0  0  0  0
  5 26  1  0  0  0  0
  6  9  1  0  0  0  0
  6 23  1  0  0  0  0
  6 24  1  0  0  0  0
  7  8  1  0  0  0  0
  7  9  1  0  0  0  0
  7 13  1  0  0  0  0
  7 27  1  0  0  0  0
  8 30  1  0  0  0  0
  8 31  1  0  0  0  0
  9 28  1  0  0  0  0
  9 29  1  0  0  0  0
 10 33  1  0  0  0  0
 10 34  1  0  0  0  0
 10 35  1  0  0  0  0
 11 36  1  0  0  0  0
 11 37  1  0  0  0  0
 11 38  1  0  0  0  0
 12 32  1  0  0  0  0
 12 39  1  0  0  0  0
 12 40  1  0  0  0  0
 14 15  1  0  0  0  0
 14 16  2  0  0  0  0
 15 17  2  0  0  0  0
 15 18  1  0  0  0  0
 16 19  1  0  0  0  0
 16 42  1  0  0  0  0
 17 20  1  0  0  0  0
 17 21  1  0  0  0  0
 18 43  1  0  0  0  0
 18 44  1  0  0  0  0
 18 45  1  0  0  0  0
 19 20  2  0  0  0  0
 19 46  1  0  0  0  0
 20 47  1  0  0  0  0
 21 48  1  0  0  0  0
 21 49  1  0  0  0  0
 21 50  1  0  0  0  0
M  END
> <PUBCHEM_COMPOUND_CID>
18266627

> <PUBCHEM_COMPOUND_CANONICALIZED>
1

> <PUBCHEM_CACTVS_COMPLEXITY>
349

> <PUBCHEM_CACTVS_HBOND_ACCEPTOR>
1

> <PUBCHEM_CACTVS_HBOND_DONOR>
1

> <PUBCHEM_CACTVS_ROTATABLE_BOND>
3

> <PUBCHEM_CACTVS_SUBSKEYS>
AAADceB6IAAAAAAAAAAAAAAAAAAAAAAAAAAwYAAAAAAAAAABAAAAHgAQAAAADwiBmAAywILAAACIAiVSUACCAAAhAgAIiAEAZIgIIDLAkZGEIAhglADIyAcYiMCPgAAAQAASAACAAACAACQAAAAAAAAAAA==

> <PUBCHEM_IUPAC_OPENEYE_NAME>
4-tert-butyl-N-(2,3-dimethylphenyl)cyclohexanecarboxamide

> <PUBCHEM_IUPAC_CAS_NAME>
4-tert-butyl-N-(2,3-dimethylphenyl)-1-cyclohexanecarboxamide

> <PUBCHEM_IUPAC_NAME>
4-tert-butyl-N-(2,3-dimethylphenyl)cyclohexane-1-carboxamide

> <PUBCHEM_IUPAC_SYSTEMATIC_NAME>
4-tert-butyl-N-(2,3-dimethylphenyl)cyclohexane-1-carboxamide

> <PUBCHEM_IUPAC_TRADITIONAL_NAME>
4-tert-butyl-N-(2,3-dimethylphenyl)cyclohexanecarboxamide

> <PUBCHEM_IUPAC_INCHI>
InChI=1S/C19H29NO/c1-13-7-6-8-17(14(13)2)20-18(21)15-9-11-16(12-10-15)19(3,4)5/h6-8,15-16H,9-12H2,1-5H3,(H,20,21)

> <PUBCHEM_IUPAC_INCHIKEY>
CXCANBDITYVUAC-UHFFFAOYSA-N

> <PUBCHEM_XLOGP3>
4.9

> <PUBCHEM_EXACT_MASS>
287.224915

> <PUBCHEM_MOLECULAR_FORMULA>
C19H29NO

> <PUBCHEM_MOLECULAR_WEIGHT>
287.43966

> <PUBCHEM_OPENEYE_CAN_SMILES>
CC1=C(C(=CC=C1)NC(=O)C2CCC(CC2)C(C)(C)C)C

> <PUBCHEM_OPENEYE_ISO_SMILES>
CC1=C(C(=CC=C1)NC(=O)C2CCC(CC2)C(C)(C)C)C

> <PUBCHEM_CACTVS_TPSA>
29.1

> <PUBCHEM_MONOISOTOPIC_WEIGHT>
287.224915

> <PUBCHEM_TOTAL_CHARGE>
0

> <PUBCHEM_HEAVY_ATOM_COUNT>
21

> <PUBCHEM_ATOM_DEF_STEREO_COUNT>
0

> <PUBCHEM_ATOM_UDEF_STEREO_COUNT>
0

> <PUBCHEM_BOND_DEF_STEREO_COUNT>
0

> <PUBCHEM_BOND_UDEF_STEREO_COUNT>
0

> <PUBCHEM_ISOTOPIC_ATOM_COUNT>
0

> <PUBCHEM_COMPONENT_COUNT>
1

> <PUBCHEM_CACTVS_TAUTO_COUNT>
3

> <PUBCHEM_COORDINATE_TYPE>
1
5
255

> <PUBCHEM_BONDANNOTATIONS>
14  15  8
14  16  8
15  17  8
16  19  8
17  20  8
19  20  8

$$$$
