65080338
  -OEChem-11301218252D

 46 48  0     1  0  0  0  0  0999 V2000
    5.0765   -1.1173    0.0000 N   0  0  0  0  0  0  0  0  0  0  0  0
    4.2105   -0.6173    0.0000 C   0  0  3  0  0  0  0  0  0  0  0  0
    4.2852    0.3799    0.0000 C   0  0  0  0  0  0  0  0  0  0  0  0
    3.3842   -1.1806    0.0000 C   0  0  0  0  0  0  0  0  0  0  0  0
    5.9425   -0.6173    0.0000 C   0  0  3  0  0  0  0  0  0  0  0  0
    2.5633    0.9110    0.0000 C   0  0  3  0  0  0  0  0  0  0  0  0
    3.5522    1.0601    0.0000 C   0  0  0  0  0  0  0  0  0  0  0  0
    2.4287   -0.8859    0.0000 C   0  0  0  0  0  0  0  0  0  0  0  0
    2.0633    0.0450    0.0000 C   0  0  0  0  0  0  0  0  0  0  0  0
    5.9425    0.3827    0.0000 C   0  0  0  0  0  0  0  0  0  0  0  0
    6.8086   -1.1173    0.0000 C   0  0  0  0  0  0  0  0  0  0  0  0
    6.8086    0.8827    0.0000 C   0  0  0  0  0  0  0  0  0  0  0  0
    7.6746   -0.6173    0.0000 C   0  0  0  0  0  0  0  0  0  0  0  0
    2.0000    1.7373    0.0000 C   0  0  0  0  0  0  0  0  0  0  0  0
    7.6746    0.3827    0.0000 C   0  0  0  0  0  0  0  0  0  0  0  0
    8.5685   -1.1520    0.0000 C   0  0  0  0  0  0  0  0  0  0  0  0
    8.5685    0.9174    0.0000 C   0  0  0  0  0  0  0  0  0  0  0  0
    9.4746   -0.6381    0.0000 C   0  0  0  0  0  0  0  0  0  0  0  0
    9.4746    0.4035    0.0000 C   0  0  0  0  0  0  0  0  0  0  0  0
    4.2336   -1.2368    0.0000 H   0  0  0  0  0  0  0  0  0  0  0  0
    4.8777    0.1972    0.0000 H   0  0  0  0  0  0  0  0  0  0  0  0
    4.5952    0.9169    0.0000 H   0  0  0  0  0  0  0  0  0  0  0  0
    3.0742   -1.7175    0.0000 H   0  0  0  0  0  0  0  0  0  0  0  0
    3.8387   -1.6023    0.0000 H   0  0  0  0  0  0  0  0  0  0  0  0
    5.4056   -0.3073    0.0000 H   0  0  0  0  0  0  0  0  0  0  0  0
    2.8112    1.4793    0.0000 H   0  0  0  0  0  0  0  0  0  0  0  0
    4.0644    1.4094    0.0000 H   0  0  0  0  0  0  0  0  0  0  0  0
    3.3256    1.6372    0.0000 H   0  0  0  0  0  0  0  0  0  0  0  0
    1.8156   -0.9783    0.0000 H   0  0  0  0  0  0  0  0  0  0  0  0
    2.3823   -1.5041    0.0000 H   0  0  0  0  0  0  0  0  0  0  0  0
    1.6088    0.4667    0.0000 H   0  0  0  0  0  0  0  0  0  0  0  0
    1.5510   -0.3042    0.0000 H   0  0  0  0  0  0  0  0  0  0  0  0
    5.0765   -1.7373    0.0000 H   0  0  0  0  0  0  0  0  0  0  0  0
    5.7305    0.9653    0.0000 H   0  0  0  0  0  0  0  0  0  0  0  0
    5.3319    0.2751    0.0000 H   0  0  0  0  0  0  0  0  0  0  0  0
    6.4100   -1.5922    0.0000 H   0  0  0  0  0  0  0  0  0  0  0  0
    7.2071   -1.5922    0.0000 H   0  0  0  0  0  0  0  0  0  0  0  0
    7.2071    1.3577    0.0000 H   0  0  0  0  0  0  0  0  0  0  0  0
    6.4100    1.3577    0.0000 H   0  0  0  0  0  0  0  0  0  0  0  0
    2.5123    2.0865    0.0000 H   0  0  0  0  0  0  0  0  0  0  0  0
    1.6507    2.2496    0.0000 H   0  0  0  0  0  0  0  0  0  0  0  0
    1.4877    1.3880    0.0000 H   0  0  0  0  0  0  0  0  0  0  0  0
    8.5613   -1.7719    0.0000 H   0  0  0  0  0  0  0  0  0  0  0  0
    8.5613    1.5373    0.0000 H   0  0  0  0  0  0  0  0  0  0  0  0
   10.0103   -0.9502    0.0000 H   0  0  0  0  0  0  0  0  0  0  0  0
   10.0103    0.7156    0.0000 H   0  0  0  0  0  0  0  0  0  0  0  0
  1  2  1  0  0  0  0
  1  5  1  0  0  0  0
  1 33  1  0  0  0  0
  2  3  1  0  0  0  0
  2  4  1  0  0  0  0
  2 20  1  0  0  0  0
  3  7  1  0  0  0  0
  3 21  1  0  0  0  0
  3 22  1  0  0  0  0
  4  8  1  0  0  0  0
  4 23  1  0  0  0  0
  4 24  1  0  0  0  0
  5 10  1  0  0  0  0
  5 11  1  0  0  0  0
  5 25  1  0  0  0  0
  6  7  1  0  0  0  0
  6  9  1  0  0  0  0
  6 14  1  0  0  0  0
  6 26  1  0  0  0  0
  7 27  1  0  0  0  0
  7 28  1  0  0  0  0
  8  9  1  0  0  0  0
  8 29  1  0  0  0  0
  8 30  1  0  0  0  0
  9 31  1  0  0  0  0
  9 32  1  0  0  0  0
 10 12  1  0  0  0  0
 10 34  1  0  0  0  0
 10 35  1  0  0  0  0
 11 13  1  0  0  0  0
 11 36  1  0  0  0  0
 11 37  1  0  0  0  0
 12 15  1  0  0  0  0
 12 38  1  0  0  0  0
 12 39  1  0  0  0  0
 13 15  1  0  0  0  0
 13 16  2  0  0  0  0
 14 40  1  0  0  0  0
 14 41  1  0  0  0  0
 14 42  1  0  0  0  0
 15 17  2  0  0  0  0
 16 18  1  0  0  0  0
 16 43  1  0  0  0  0
 17 19  1  0  0  0  0
 17 44  1  0  0  0  0
 18 19  2  0  0  0  0
 18 45  1  0  0  0  0
 19 46  1  0  0  0  0
M  END
> <PUBCHEM_COMPOUND_CID>
65080338

> <PUBCHEM_COMPOUND_CANONICALIZED>
1

> <PUBCHEM_CACTVS_COMPLEXITY>
275

> <PUBCHEM_CACTVS_HBOND_ACCEPTOR>
1

> <PUBCHEM_CACTVS_HBOND_DONOR>
1

> <PUBCHEM_CACTVS_ROTATABLE_BOND>
2

> <PUBCHEM_CACTVS_SUBSKEYS>
AAADceB6AAAAAAAAAAAAAAAAAAAAAAAAAAAwYAAABgAAAADBAAAAHAAQAAAADSjBGAQyAILAAACAAiBCAAACAAAgAAAIiIAIAIgIICKAkRGEIAAgkACIiAcQgMAOgAAAAAAQAAAQAACAACAAAAAAAAAAAA==

> <PUBCHEM_IUPAC_OPENEYE_NAME>
N-(4-methylcycloheptyl)tetralin-2-amine

> <PUBCHEM_IUPAC_CAS_NAME>
N-(4-methylcycloheptyl)-1,2,3,4-tetrahydronaphthalen-2-amine

> <PUBCHEM_IUPAC_NAME>
N-(4-methylcycloheptyl)-1,2,3,4-tetrahydronaphthalen-2-amine

> <PUBCHEM_IUPAC_SYSTEMATIC_NAME>
N-(4-methylcycloheptyl)-1,2,3,4-tetrahydronaphthalen-2-amine

> <PUBCHEM_IUPAC_TRADITIONAL_NAME>
(4-methylcycloheptyl)-tetralin-2-yl-amine

> <PUBCHEM_IUPAC_INCHI>
InChI=1S/C18H27N/c1-14-5-4-8-17(11-9-14)19-18-12-10-15-6-2-3-7-16(15)13-18/h2-3,6-7,14,17-19H,4-5,8-13H2,1H3

> <PUBCHEM_IUPAC_INCHIKEY>
JVXZMPRSVGCYAY-UHFFFAOYSA-N

> <PUBCHEM_XLOGP3>
5

> <PUBCHEM_EXACT_MASS>
257.21435

> <PUBCHEM_MOLECULAR_FORMULA>
C18H27N

> <PUBCHEM_MOLECULAR_WEIGHT>
257.41368

> <PUBCHEM_OPENEYE_CAN_SMILES>
CC1CCCC(CC1)NC2CCC3=CC=CC=C3C2

> <PUBCHEM_OPENEYE_ISO_SMILES>
CC1CCCC(CC1)NC2CCC3=CC=CC=C3C2

> <PUBCHEM_CACTVS_TPSA>
12

> <PUBCHEM_MONOISOTOPIC_WEIGHT>
257.21435

> <PUBCHEM_TOTAL_CHARGE>
0

> <PUBCHEM_HEAVY_ATOM_COUNT>
19

> <PUBCHEM_ATOM_DEF_STEREO_COUNT>
0

> <PUBCHEM_ATOM_UDEF_STEREO_COUNT>
3

> <PUBCHEM_BOND_DEF_STEREO_COUNT>
0

> <PUBCHEM_BOND_UDEF_STEREO_COUNT>
0

> <PUBCHEM_ISOTOPIC_ATOM_COUNT>
0

> <PUBCHEM_COMPONENT_COUNT>
1

> <PUBCHEM_CACTVS_TAUTO_COUNT>
1

> <PUBCHEM_COORDINATE_TYPE>
1
5
255

> <PUBCHEM_BONDANNOTATIONS>
2  1  3
5  1  3
13  15  8
13  16  8
15  17  8
16  18  8
17  19  8
18  19  8
6  14  3

$$$$
65081381
  -OEChem-11301218252D

 46 48  0     1  0  0  0  0  0999 V2000
    6.2781    1.3550    0.0000 N   0  0  0  0  0  0  0  0  0  0  0  0
    4.6783   -2.3617    0.0000 N   0  0  0  0  0  0  0  0  0  0  0  0
    7.2566    1.5612    0.0000 C   0  0  3  0  0  0  0  0  0  0  0  0
    9.5033    1.5237    0.0000 C   0  0  3  0  0  0  0  0  0  0  0  0
    7.8670    0.7691    0.0000 C   0  0  0  0  0  0  0  0  0  0  0  0
    8.8668    0.7524    0.0000 C   0  0  0  0  0  0  0  0  0  0  0  0
    7.4954    2.5323    0.0000 C   0  0  0  0  0  0  0  0  0  0  0  0
    9.2971    2.5022    0.0000 C   0  0  0  0  0  0  0  0  0  0  0  0
    8.4034    2.9511    0.0000 C   0  0  0  0  0  0  0  0  0  0  0  0
   10.4744    1.2849    0.0000 C   0  0  0  0  0  0  0  0  0  0  0  0
    5.9674    0.4045    0.0000 C   0  0  0  0  0  0  0  0  0  0  0  0
    4.9889    0.1982    0.0000 C   0  0  0  0  0  0  0  0  0  0  0  0
    4.6783   -0.7523    0.0000 C   0  0  0  0  0  0  0  0  0  0  0  0
    3.7320   -1.0570    0.0000 C   0  0  0  0  0  0  0  0  0  0  0  0
    5.2619   -1.5570    0.0000 C   0  0  0  0  0  0  0  0  0  0  0  0
    3.7320   -2.0570    0.0000 C   0  0  0  0  0  0  0  0  0  0  0  0
    2.8660   -0.5570    0.0000 C   0  0  0  0  0  0  0  0  0  0  0  0
    2.8660   -2.5570    0.0000 C   0  0  0  0  0  0  0  0  0  0  0  0
    2.0000   -1.0570    0.0000 C   0  0  0  0  0  0  0  0  0  0  0  0
    2.0000   -2.0570    0.0000 C   0  0  0  0  0  0  0  0  0  0  0  0
    7.0421    0.9795    0.0000 H   0  0  0  0  0  0  0  0  0  0  0  0
    9.6982    0.9352    0.0000 H   0  0  0  0  0  0  0  0  0  0  0  0
    7.3040    0.5094    0.0000 H   0  0  0  0  0  0  0  0  0  0  0  0
    7.9948    0.1624    0.0000 H   0  0  0  0  0  0  0  0  0  0  0  0
    8.7188    0.1503    0.0000 H   0  0  0  0  0  0  0  0  0  0  0  0
    9.4209    0.4741    0.0000 H   0  0  0  0  0  0  0  0  0  0  0  0
    7.3675    3.1390    0.0000 H   0  0  0  0  0  0  0  0  0  0  0  0
    6.8754    2.5426    0.0000 H   0  0  0  0  0  0  0  0  0  0  0  0
    9.9170    2.4919    0.0000 H   0  0  0  0  0  0  0  0  0  0  0  0
    9.4451    3.1043    0.0000 H   0  0  0  0  0  0  0  0  0  0  0  0
    8.7980    3.4293    0.0000 H   0  0  0  0  0  0  0  0  0  0  0  0
    8.0250    3.4422    0.0000 H   0  0  0  0  0  0  0  0  0  0  0  0
    5.8640    1.8164    0.0000 H   0  0  0  0  0  0  0  0  0  0  0  0
   10.3263    0.6829    0.0000 H   0  0  0  0  0  0  0  0  0  0  0  0
   11.0764    1.1369    0.0000 H   0  0  0  0  0  0  0  0  0  0  0  0
   10.6224    1.8870    0.0000 H   0  0  0  0  0  0  0  0  0  0  0  0
    5.9880   -0.2152    0.0000 H   0  0  0  0  0  0  0  0  0  0  0  0
    6.5812    0.3171    0.0000 H   0  0  0  0  0  0  0  0  0  0  0  0
    4.9684    0.8179    0.0000 H   0  0  0  0  0  0  0  0  0  0  0  0
    4.3751    0.2856    0.0000 H   0  0  0  0  0  0  0  0  0  0  0  0
    5.8819   -1.5570    0.0000 H   0  0  0  0  0  0  0  0  0  0  0  0
    4.8709   -2.9511    0.0000 H   0  0  0  0  0  0  0  0  0  0  0  0
    2.8660    0.0630    0.0000 H   0  0  0  0  0  0  0  0  0  0  0  0
    2.8660   -3.1770    0.0000 H   0  0  0  0  0  0  0  0  0  0  0  0
    1.4631   -0.7470    0.0000 H   0  0  0  0  0  0  0  0  0  0  0  0
    1.4631   -2.3670    0.0000 H   0  0  0  0  0  0  0  0  0  0  0  0
  1  3  1  0  0  0  0
  1 11  1  0  0  0  0
  1 33  1  0  0  0  0
  2 15  1  0  0  0  0
  2 16  1  0  0  0  0
  2 42  1  0  0  0  0
  3  5  1  0  0  0  0
  3  7  1  0  0  0  0
  3 21  1  0  0  0  0
  4  6  1  0  0  0  0
  4  8  1  0  0  0  0
  4 10  1  0  0  0  0
  4 22  1  0  0  0  0
  5  6  1  0  0  0  0
  5 23  1  0  0  0  0
  5 24  1  0  0  0  0
  6 25  1  0  0  0  0
  6 26  1  0  0  0  0
  7  9  1  0  0  0  0
  7 27  1  0  0  0  0
  7 28  1  0  0  0  0
  8  9  1  0  0  0  0
  8 29  1  0  0  0  0
  8 30  1  0  0  0  0
  9 31  1  0  0  0  0
  9 32  1  0  0  0  0
 10 34  1  0  0  0  0
 10 35  1  0  0  0  0
 10 36  1  0  0  0  0
 11 12  1  0  0  0  0
 11 37  1  0  0  0  0
 11 38  1  0  0  0  0
 12 13  1  0  0  0  0
 12 39  1  0  0  0  0
 12 40  1  0  0  0  0
 13 14  1  0  0  0  0
 13 15  2  0  0  0  0
 14 16  1  0  0  0  0
 14 17  2  0  0  0  0
 15 41  1  0  0  0  0
 16 18  2  0  0  0  0
 17 19  1  0  0  0  0
 17 43  1  0  0  0  0
 18 20  1  0  0  0  0
 18 44  1  0  0  0  0
 19 20  2  0  0  0  0
 19 45  1  0  0  0  0
 20 46  1  0  0  0  0
M  END
> <PUBCHEM_COMPOUND_CID>
65081381

> <PUBCHEM_COMPOUND_CANONICALIZED>
1

> <PUBCHEM_CACTVS_COMPLEXITY>
291

> <PUBCHEM_CACTVS_HBOND_ACCEPTOR>
1

> <PUBCHEM_CACTVS_HBOND_DONOR>
2

> <PUBCHEM_CACTVS_ROTATABLE_BOND>
4

> <PUBCHEM_CACTVS_SUBSKEYS>
AAADceB7AAAAAAAAAAAAAAAAAAAAAWAAAAAwAAAABgAAAFgB8AAAHAAQAAAADSjBHgQ+wPLJkACgAzRnRACCgCAxAiAI2aA4ZJgIIOLAkZGEIAhgkADIyAcQgMAOgAAAAAACAAAAAAAAAAQAAAAAAAAAAA==

> <PUBCHEM_IUPAC_OPENEYE_NAME>
N-[2-(1H-indol-3-yl)ethyl]-4-methyl-cycloheptanamine

> <PUBCHEM_IUPAC_CAS_NAME>
N-[2-(1H-indol-3-yl)ethyl]-4-methyl-1-cycloheptanamine

> <PUBCHEM_IUPAC_NAME>
N-[2-(1H-indol-3-yl)ethyl]-4-methylcycloheptan-1-amine

> <PUBCHEM_IUPAC_SYSTEMATIC_NAME>
N-[2-(1H-indol-3-yl)ethyl]-4-methyl-cycloheptan-1-amine

> <PUBCHEM_IUPAC_TRADITIONAL_NAME>
2-(1H-indol-3-yl)ethyl-(4-methylcycloheptyl)amine

> <PUBCHEM_IUPAC_INCHI>
InChI=1S/C18H26N2/c1-14-5-4-6-16(10-9-14)19-12-11-15-13-20-18-8-3-2-7-17(15)18/h2-3,7-8,13-14,16,19-20H,4-6,9-12H2,1H3

> <PUBCHEM_IUPAC_INCHIKEY>
VHUJAJMDUPHHQF-UHFFFAOYSA-N

> <PUBCHEM_XLOGP3>
4.7

> <PUBCHEM_EXACT_MASS>
270.209599

> <PUBCHEM_MOLECULAR_FORMULA>
C18H26N2

> <PUBCHEM_MOLECULAR_WEIGHT>
270.41244

> <PUBCHEM_OPENEYE_CAN_SMILES>
CC1CCCC(CC1)NCCC2=CNC3=CC=CC=C32

> <PUBCHEM_OPENEYE_ISO_SMILES>
CC1CCCC(CC1)NCCC2=CNC3=CC=CC=C32

> <PUBCHEM_CACTVS_TPSA>
27.8

> <PUBCHEM_MONOISOTOPIC_WEIGHT>
270.209599

> <PUBCHEM_TOTAL_CHARGE>
0

> <PUBCHEM_HEAVY_ATOM_COUNT>
20

> <PUBCHEM_ATOM_DEF_STEREO_COUNT>
0

> <PUBCHEM_ATOM_UDEF_STEREO_COUNT>
2

> <PUBCHEM_BOND_DEF_STEREO_COUNT>
0

> <PUBCHEM_BOND_UDEF_STEREO_COUNT>
0

> <PUBCHEM_ISOTOPIC_ATOM_COUNT>
0

> <PUBCHEM_COMPONENT_COUNT>
1

> <PUBCHEM_CACTVS_TAUTO_COUNT>
1

> <PUBCHEM_COORDINATE_TYPE>
1
5
255

> <PUBCHEM_BONDANNOTATIONS>
3  1  3
13  14  8
13  15  8
14  16  8
14  17  8
16  18  8
17  19  8
18  20  8
19  20  8
2  15  8
2  16  8
4  10  3

$$$$
