16805566
  -OEChem-11301217212D

 29 31  0     0  0  0  0  0  0999 V2000
    2.8660    1.8100    0.0000 Cl  0  0  0  0  0  0  0  0  0  0  0  0
    6.3301    1.8100    0.0000 O   0  0  0  0  0  0  0  0  0  0  0  0
    6.3301   -1.1900    0.0000 N   0  0  0  0  0  0  0  0  0  0  0  0
    4.5981   -1.1900    0.0000 N   0  0  0  0  0  0  0  0  0  0  0  0
    5.4641    0.3100    0.0000 N   0  0  0  0  0  0  0  0  0  0  0  0
    7.1962   -0.6900    0.0000 C   0  0  0  0  0  0  0  0  0  0  0  0
    7.1962    0.3100    0.0000 C   0  0  0  0  0  0  0  0  0  0  0  0
    5.4641   -0.6900    0.0000 C   0  0  0  0  0  0  0  0  0  0  0  0
    8.0901   -1.2247    0.0000 C   0  0  0  0  0  0  0  0  0  0  0  0
    3.7320   -0.6900    0.0000 C   0  0  0  0  0  0  0  0  0  0  0  0
    6.3301    0.8100    0.0000 C   0  0  0  0  0  0  0  0  0  0  0  0
    8.0901    0.8447    0.0000 C   0  0  0  0  0  0  0  0  0  0  0  0
    8.9962   -0.7108    0.0000 C   0  0  0  0  0  0  0  0  0  0  0  0
    8.9962    0.3308    0.0000 C   0  0  0  0  0  0  0  0  0  0  0  0
    3.7320    0.3100    0.0000 C   0  0  0  0  0  0  0  0  0  0  0  0
    2.8660   -1.1900    0.0000 C   0  0  0  0  0  0  0  0  0  0  0  0
    2.8660    0.8100    0.0000 C   0  0  0  0  0  0  0  0  0  0  0  0
    2.0000   -0.6900    0.0000 C   0  0  0  0  0  0  0  0  0  0  0  0
    2.0000    0.3100    0.0000 C   0  0  0  0  0  0  0  0  0  0  0  0
    6.3301   -1.8100    0.0000 H   0  0  0  0  0  0  0  0  0  0  0  0
    4.5981   -1.8100    0.0000 H   0  0  0  0  0  0  0  0  0  0  0  0
    8.0829   -1.8446    0.0000 H   0  0  0  0  0  0  0  0  0  0  0  0
    8.0829    1.4646    0.0000 H   0  0  0  0  0  0  0  0  0  0  0  0
    9.5319   -1.0229    0.0000 H   0  0  0  0  0  0  0  0  0  0  0  0
    9.5319    0.6429    0.0000 H   0  0  0  0  0  0  0  0  0  0  0  0
    4.2690    0.6200    0.0000 H   0  0  0  0  0  0  0  0  0  0  0  0
    2.8660   -1.8100    0.0000 H   0  0  0  0  0  0  0  0  0  0  0  0
    1.4631   -1.0000    0.0000 H   0  0  0  0  0  0  0  0  0  0  0  0
    1.4631    0.6200    0.0000 H   0  0  0  0  0  0  0  0  0  0  0  0
  1 17  1  0  0  0  0
  2 11  2  0  0  0  0
  3  6  1  0  0  0  0
  3  8  1  0  0  0  0
  3 20  1  0  0  0  0
  4  8  1  0  0  0  0
  4 10  1  0  0  0  0
  4 21  1  0  0  0  0
  5  8  2  0  0  0  0
  5 11  1  0  0  0  0
  6  7  1  0  0  0  0
  6  9  2  0  0  0  0
  7 11  1  0  0  0  0
  7 12  2  0  0  0  0
  9 13  1  0  0  0  0
  9 22  1  0  0  0  0
 10 15  2  0  0  0  0
 10 16  1  0  0  0  0
 12 14  1  0  0  0  0
 12 23  1  0  0  0  0
 13 14  2  0  0  0  0
 13 24  1  0  0  0  0
 14 25  1  0  0  0  0
 15 17  1  0  0  0  0
 15 26  1  0  0  0  0
 16 18  2  0  0  0  0
 16 27  1  0  0  0  0
 17 19  2  0  0  0  0
 18 19  1  0  0  0  0
 18 28  1  0  0  0  0
 19 29  1  0  0  0  0
M  END
> <PUBCHEM_COMPOUND_CID>
16805566

> <PUBCHEM_COMPOUND_CANONICALIZED>
1

> <PUBCHEM_CACTVS_COMPLEXITY>
385

> <PUBCHEM_CACTVS_HBOND_ACCEPTOR>
1

> <PUBCHEM_CACTVS_HBOND_DONOR>
2

> <PUBCHEM_CACTVS_ROTATABLE_BOND>
2

> <PUBCHEM_CACTVS_SUBSKEYS>
AAADccBzIAAEAAAAAAAAAAAAAAAAAAAAAAAwYIAAAAAAAACBQAAAHgIQAAAADAqBmCAxwILAAACoAiVSdACCAAElBwAJiAEAZsiIIDrB35GEIYhokAJIyecYiACOAAAAAAICAAAAAAAABAQAAAAAAAAAAA==

> <PUBCHEM_IUPAC_OPENEYE_NAME>
2-(3-chloroanilino)-1H-quinazolin-4-one

> <PUBCHEM_IUPAC_CAS_NAME>
2-(3-chloroanilino)-1H-quinazolin-4-one

> <PUBCHEM_IUPAC_NAME>
2-(3-chloroanilino)-1H-quinazolin-4-one

> <PUBCHEM_IUPAC_SYSTEMATIC_NAME>
2-[(3-chlorophenyl)amino]-1H-quinazolin-4-one

> <PUBCHEM_IUPAC_TRADITIONAL_NAME>
2-(3-chloroanilino)-1H-quinazolin-4-one

> <PUBCHEM_IUPAC_INCHI>
InChI=1S/C14H10ClN3O/c15-9-4-3-5-10(8-9)16-14-17-12-7-2-1-6-11(12)13(19)18-14/h1-8H,(H2,16,17,18,19)

> <PUBCHEM_IUPAC_INCHIKEY>
OOHDYSCTHXJBCJ-UHFFFAOYSA-N

> <PUBCHEM_XLOGP3>
3.2

> <PUBCHEM_EXACT_MASS>
271.05124

> <PUBCHEM_MOLECULAR_FORMULA>
C14H10ClN3O

> <PUBCHEM_MOLECULAR_WEIGHT>
271.7017

> <PUBCHEM_OPENEYE_CAN_SMILES>
C1=CC=C2C(=C1)C(=O)N=C(N2)NC3=CC(=CC=C3)Cl

> <PUBCHEM_OPENEYE_ISO_SMILES>
C1=CC=C2C(=C1)C(=O)N=C(N2)NC3=CC(=CC=C3)Cl

> <PUBCHEM_CACTVS_TPSA>
53.5

> <PUBCHEM_MONOISOTOPIC_WEIGHT>
271.05124

> <PUBCHEM_TOTAL_CHARGE>
0

> <PUBCHEM_HEAVY_ATOM_COUNT>
19

> <PUBCHEM_ATOM_DEF_STEREO_COUNT>
0

> <PUBCHEM_ATOM_UDEF_STEREO_COUNT>
0

> <PUBCHEM_BOND_DEF_STEREO_COUNT>
0

> <PUBCHEM_BOND_UDEF_STEREO_COUNT>
0

> <PUBCHEM_ISOTOPIC_ATOM_COUNT>
0

> <PUBCHEM_COMPONENT_COUNT>
1

> <PUBCHEM_CACTVS_TAUTO_COUNT>
12

> <PUBCHEM_COORDINATE_TYPE>
1
5
255

> <PUBCHEM_BONDANNOTATIONS>
10  15  8
10  16  8
12  14  8
13  14  8
15  17  8
16  18  8
17  19  8
18  19  8
3  6  8
3  8  8
5  11  8
5  8  8
6  7  8
6  9  8
7  11  8
7  12  8
9  13  8

$$$$
16810978
  -OEChem-11301217212D

 28 29  0     0  0  0  0  0  0999 V2000
    6.6353    0.4081    0.0000 O   0  0  0  0  0  0  0  0  0  0  0  0
    4.6783   -1.6138    0.0000 N   0  0  0  0  0  0  0  0  0  0  0  0
    4.9889    0.9462    0.0000 N   0  0  0  0  0  0  0  0  0  0  0  0
    6.2781    2.1029    0.0000 N   0  0  0  0  0  0  0  0  0  0  0  0
    3.7320   -1.3091    0.0000 C   0  0  0  0  0  0  0  0  0  0  0  0
    3.7320   -0.3091    0.0000 C   0  0  0  0  0  0  0  0  0  0  0  0
    4.6783   -0.0044    0.0000 C   0  0  0  0  0  0  0  0  0  0  0  0
    5.2619   -0.8091    0.0000 C   0  0  0  0  0  0  0  0  0  0  0  0
    2.8660   -1.8091    0.0000 C   0  0  0  0  0  0  0  0  0  0  0  0
    2.8660    0.1909    0.0000 C   0  0  0  0  0  0  0  0  0  0  0  0
    4.9889   -2.5644    0.0000 C   0  0  0  0  0  0  0  0  0  0  0  0
    2.0000   -1.3091    0.0000 C   0  0  0  0  0  0  0  0  0  0  0  0
    2.0000   -0.3091    0.0000 C   0  0  0  0  0  0  0  0  0  0  0  0
    5.9674    1.1524    0.0000 C   0  0  0  0  0  0  0  0  0  0  0  0
    7.2566    2.3091    0.0000 C   0  0  0  0  0  0  0  0  0  0  0  0
    5.8819   -0.8091    0.0000 H   0  0  0  0  0  0  0  0  0  0  0  0
    2.8660   -2.4291    0.0000 H   0  0  0  0  0  0  0  0  0  0  0  0
    2.8660    0.8109    0.0000 H   0  0  0  0  0  0  0  0  0  0  0  0
    4.3996   -2.7570    0.0000 H   0  0  0  0  0  0  0  0  0  0  0  0
    5.1815   -3.1537    0.0000 H   0  0  0  0  0  0  0  0  0  0  0  0
    5.5783   -2.3717    0.0000 H   0  0  0  0  0  0  0  0  0  0  0  0
    4.5749    1.4076    0.0000 H   0  0  0  0  0  0  0  0  0  0  0  0
    1.4631   -1.6191    0.0000 H   0  0  0  0  0  0  0  0  0  0  0  0
    1.4631    0.0009    0.0000 H   0  0  0  0  0  0  0  0  0  0  0  0
    5.8640    2.5644    0.0000 H   0  0  0  0  0  0  0  0  0  0  0  0
    7.3845    1.7024    0.0000 H   0  0  0  0  0  0  0  0  0  0  0  0
    7.8633    2.4370    0.0000 H   0  0  0  0  0  0  0  0  0  0  0  0
    7.1288    2.9158    0.0000 H   0  0  0  0  0  0  0  0  0  0  0  0
  1 14  2  0  0  0  0
  2  5  1  0  0  0  0
  2  8  1  0  0  0  0
  2 11  1  0  0  0  0
  3  7  1  0  0  0  0
  3 14  1  0  0  0  0
  3 22  1  0  0  0  0
  4 14  1  0  0  0  0
  4 15  1  0  0  0  0
  4 25  1  0  0  0  0
  5  6  1  0  0  0  0
  5  9  2  0  0  0  0
  6  7  1  0  0  0  0
  6 10  2  0  0  0  0
  7  8  2  0  0  0  0
  8 16  1  0  0  0  0
  9 12  1  0  0  0  0
  9 17  1  0  0  0  0
 10 13  1  0  0  0  0
 10 18  1  0  0  0  0
 11 19  1  0  0  0  0
 11 20  1  0  0  0  0
 11 21  1  0  0  0  0
 12 13  2  0  0  0  0
 12 23  1  0  0  0  0
 13 24  1  0  0  0  0
 15 26  1  0  0  0  0
 15 27  1  0  0  0  0
 15 28  1  0  0  0  0
M  END
> <PUBCHEM_COMPOUND_CID>
16810978

> <PUBCHEM_COMPOUND_CANONICALIZED>
1

> <PUBCHEM_CACTVS_COMPLEXITY>
244

> <PUBCHEM_CACTVS_HBOND_ACCEPTOR>
1

> <PUBCHEM_CACTVS_HBOND_DONOR>
2

> <PUBCHEM_CACTVS_ROTATABLE_BOND>
1

> <PUBCHEM_CACTVS_SUBSKEYS>
AAADccBzIAAAAAAAAAAAAAAAAAAAAWAAAAAwAAAAAAAAAFgB8AAAHgAQAAAADAjBHgQ/wPPMEACoAzRnVACCgCAxEiAI2KA4dJiIYOLA0dGUJAholgLIyCcQgIAOAAAAAAACAAAAAAAAAAQAAAAAAAAAAA==

> <PUBCHEM_IUPAC_OPENEYE_NAME>
1-methyl-3-(1-methylindol-3-yl)urea

> <PUBCHEM_IUPAC_CAS_NAME>
1-methyl-3-(1-methyl-3-indolyl)urea

> <PUBCHEM_IUPAC_NAME>
1-methyl-3-(1-methylindol-3-yl)urea

> <PUBCHEM_IUPAC_SYSTEMATIC_NAME>
1-methyl-3-(1-methylindol-3-yl)urea

> <PUBCHEM_IUPAC_TRADITIONAL_NAME>
1-methyl-3-(1-methylindol-3-yl)urea

> <PUBCHEM_IUPAC_INCHI>
InChI=1S/C11H13N3O/c1-12-11(15)13-9-7-14(2)10-6-4-3-5-8(9)10/h3-7H,1-2H3,(H2,12,13,15)

> <PUBCHEM_IUPAC_INCHIKEY>
HTENCIQNRUEAPA-UHFFFAOYSA-N

> <PUBCHEM_XLOGP3>
1.3

> <PUBCHEM_EXACT_MASS>
203.105862

> <PUBCHEM_MOLECULAR_FORMULA>
C11H13N3O

> <PUBCHEM_MOLECULAR_WEIGHT>
203.24042

> <PUBCHEM_OPENEYE_CAN_SMILES>
CNC(=O)NC1=CN(C2=CC=CC=C21)C

> <PUBCHEM_OPENEYE_ISO_SMILES>
CNC(=O)NC1=CN(C2=CC=CC=C21)C

> <PUBCHEM_CACTVS_TPSA>
46.1

> <PUBCHEM_MONOISOTOPIC_WEIGHT>
203.105862

> <PUBCHEM_TOTAL_CHARGE>
0

> <PUBCHEM_HEAVY_ATOM_COUNT>
15

> <PUBCHEM_ATOM_DEF_STEREO_COUNT>
0

> <PUBCHEM_ATOM_UDEF_STEREO_COUNT>
0

> <PUBCHEM_BOND_DEF_STEREO_COUNT>
0

> <PUBCHEM_BOND_UDEF_STEREO_COUNT>
0

> <PUBCHEM_ISOTOPIC_ATOM_COUNT>
0

> <PUBCHEM_COMPONENT_COUNT>
1

> <PUBCHEM_CACTVS_TAUTO_COUNT>
3

> <PUBCHEM_COORDINATE_TYPE>
1
5
255

> <PUBCHEM_BONDANNOTATIONS>
10  13  8
12  13  8
2  5  8
2  8  8
5  6  8
5  9  8
6  10  8
6  7  8
7  8  8
9  12  8

$$$$
16824386
  -OEChem-11301217222D

 44 46  0     0  0  0  0  0  0999 V2000
    5.4641    0.7327    0.0000 O   0  0  0  0  0  0  0  0  0  0  0  0
    7.1962    0.7327    0.0000 N   0  0  0  0  0  0  0  0  0  0  0  0
    2.8660   -2.7673    0.0000 C   0  0  0  0  0  0  0  0  0  0  0  0
    3.7320   -2.2673    0.0000 C   0  0  0  0  0  0  0  0  0  0  0  0
    5.4641   -1.2673    0.0000 C   0  0  0  0  0  0  0  0  0  0  0  0
    6.3301   -0.7673    0.0000 C   0  0  0  0  0  0  0  0  0  0  0  0
    4.5981   -2.7673    0.0000 C   0  0  0  0  0  0  0  0  0  0  0  0
    3.7320   -1.2673    0.0000 C   0  0  0  0  0  0  0  0  0  0  0  0
    2.8660   -3.7673    0.0000 C   0  0  0  0  0  0  0  0  0  0  0  0
    2.0000   -2.2673    0.0000 C   0  0  0  0  0  0  0  0  0  0  0  0
    5.4641   -2.2673    0.0000 C   0  0  0  0  0  0  0  0  0  0  0  0
    4.5981   -0.7673    0.0000 C   0  0  0  0  0  0  0  0  0  0  0  0
    8.0622    2.2327    0.0000 C   0  0  0  0  0  0  0  0  0  0  0  0
    7.1962    1.7327    0.0000 C   0  0  0  0  0  0  0  0  0  0  0  0
    8.0622    3.2327    0.0000 C   0  0  0  0  0  0  0  0  0  0  0  0
    6.3301    0.2327    0.0000 C   0  0  0  0  0  0  0  0  0  0  0  0
    6.3301    2.2327    0.0000 C   0  0  0  0  0  0  0  0  0  0  0  0
    8.9561    1.6980    0.0000 C   0  0  0  0  0  0  0  0  0  0  0  0
    7.1962    3.7327    0.0000 C   0  0  0  0  0  0  0  0  0  0  0  0
    8.9561    3.7673    0.0000 C   0  0  0  0  0  0  0  0  0  0  0  0
    6.3301    3.2327    0.0000 C   0  0  0  0  0  0  0  0  0  0  0  0
    9.8622    2.2118    0.0000 C   0  0  0  0  0  0  0  0  0  0  0  0
    9.8622    3.2535    0.0000 C   0  0  0  0  0  0  0  0  0  0  0  0
    2.8660   -2.1473    0.0000 H   0  0  0  0  0  0  0  0  0  0  0  0
    6.5422   -1.3499    0.0000 H   0  0  0  0  0  0  0  0  0  0  0  0
    6.9407   -0.6597    0.0000 H   0  0  0  0  0  0  0  0  0  0  0  0
    4.5981   -3.3873    0.0000 H   0  0  0  0  0  0  0  0  0  0  0  0
    3.1951   -0.9573    0.0000 H   0  0  0  0  0  0  0  0  0  0  0  0
    2.2460   -3.7673    0.0000 H   0  0  0  0  0  0  0  0  0  0  0  0
    2.3100   -1.7304    0.0000 H   0  0  0  0  0  0  0  0  0  0  0  0
    1.4631   -1.9573    0.0000 H   0  0  0  0  0  0  0  0  0  0  0  0
    1.6900   -2.8043    0.0000 H   0  0  0  0  0  0  0  0  0  0  0  0
    2.8660   -4.3873    0.0000 H   0  0  0  0  0  0  0  0  0  0  0  0
    3.4860   -3.7673    0.0000 H   0  0  0  0  0  0  0  0  0  0  0  0
    6.0010   -2.5773    0.0000 H   0  0  0  0  0  0  0  0  0  0  0  0
    4.5981   -0.1473    0.0000 H   0  0  0  0  0  0  0  0  0  0  0  0
    7.7331    0.4227    0.0000 H   0  0  0  0  0  0  0  0  0  0  0  0
    5.7932    1.9227    0.0000 H   0  0  0  0  0  0  0  0  0  0  0  0
    8.9490    1.0780    0.0000 H   0  0  0  0  0  0  0  0  0  0  0  0
    7.1962    4.3527    0.0000 H   0  0  0  0  0  0  0  0  0  0  0  0
    8.9490    4.3873    0.0000 H   0  0  0  0  0  0  0  0  0  0  0  0
    5.7932    3.5427    0.0000 H   0  0  0  0  0  0  0  0  0  0  0  0
   10.3979    1.8998    0.0000 H   0  0  0  0  0  0  0  0  0  0  0  0
   10.3979    3.5656    0.0000 H   0  0  0  0  0  0  0  0  0  0  0  0
  1 16  2  0  0  0  0
  2 14  1  0  0  0  0
  2 16  1  0  0  0  0
  2 37  1  0  0  0  0
  3  4  1  0  0  0  0
  3  9  1  0  0  0  0
  3 10  1  0  0  0  0
  3 24  1  0  0  0  0
  4  7  2  0  0  0  0
  4  8  1  0  0  0  0
  5  6  1  0  0  0  0
  5 11  2  0  0  0  0
  5 12  1  0  0  0  0
  6 16  1  0  0  0  0
  6 25  1  0  0  0  0
  6 26  1  0  0  0  0
  7 11  1  0  0  0  0
  7 27  1  0  0  0  0
  8 12  2  0  0  0  0
  8 28  1  0  0  0  0
  9 29  1  0  0  0  0
  9 33  1  0  0  0  0
  9 34  1  0  0  0  0
 10 30  1  0  0  0  0
 10 31  1  0  0  0  0
 10 32  1  0  0  0  0
 11 35  1  0  0  0  0
 12 36  1  0  0  0  0
 13 14  1  0  0  0  0
 13 15  1  0  0  0  0
 13 18  2  0  0  0  0
 14 17  2  0  0  0  0
 15 19  1  0  0  0  0
 15 20  2  0  0  0  0
 17 21  1  0  0  0  0
 17 38  1  0  0  0  0
 18 22  1  0  0  0  0
 18 39  1  0  0  0  0
 19 21  2  0  0  0  0
 19 40  1  0  0  0  0
 20 23  1  0  0  0  0
 20 41  1  0  0  0  0
 21 42  1  0  0  0  0
 22 23  2  0  0  0  0
 22 43  1  0  0  0  0
 23 44  1  0  0  0  0
M  END
> <PUBCHEM_COMPOUND_CID>
16824386

> <PUBCHEM_COMPOUND_CANONICALIZED>
1

> <PUBCHEM_CACTVS_COMPLEXITY>
383

> <PUBCHEM_CACTVS_HBOND_ACCEPTOR>
1

> <PUBCHEM_CACTVS_HBOND_DONOR>
1

> <PUBCHEM_CACTVS_ROTATABLE_BOND>
4

> <PUBCHEM_CACTVS_SUBSKEYS>
AAADceB6IAAAAAAAAAAAAAAAAAAAAAAAAAAwYMAAAAAAAADBVAAAHgAQAAAADQiBmAAywMLAAACIAiVSUACCAAAhAgAIiAEAZIgIIDLAlZGEIAhglADIyAcYiMCOwAAAQAASAACAAACAACQAAAAAAAAAAA==

> <PUBCHEM_IUPAC_OPENEYE_NAME>
2-(4-isopropylphenyl)-N-(1-naphthyl)acetamide

> <PUBCHEM_IUPAC_CAS_NAME>
N-(1-naphthalenyl)-2-(4-propan-2-ylphenyl)acetamide

> <PUBCHEM_IUPAC_NAME>
N-naphthalen-1-yl-2-(4-propan-2-ylphenyl)acetamide

> <PUBCHEM_IUPAC_SYSTEMATIC_NAME>
N-naphthalen-1-yl-2-(4-propan-2-ylphenyl)ethanamide

> <PUBCHEM_IUPAC_TRADITIONAL_NAME>
N-(1-naphthyl)-2-p-cumenyl-acetamide

> <PUBCHEM_IUPAC_INCHI>
InChI=1S/C21H21NO/c1-15(2)17-12-10-16(11-13-17)14-21(23)22-20-9-5-7-18-6-3-4-8-19(18)20/h3-13,15H,14H2,1-2H3,(H,22,23)

> <PUBCHEM_IUPAC_INCHIKEY>
WCTFDYWYPQXMEO-UHFFFAOYSA-N

> <PUBCHEM_XLOGP3>
4.4

> <PUBCHEM_EXACT_MASS>
303.162314

> <PUBCHEM_MOLECULAR_FORMULA>
C21H21NO

> <PUBCHEM_MOLECULAR_WEIGHT>
303.39754

> <PUBCHEM_OPENEYE_CAN_SMILES>
CC(C)C1=CC=C(C=C1)CC(=O)NC2=CC=CC3=CC=CC=C32

> <PUBCHEM_OPENEYE_ISO_SMILES>
CC(C)C1=CC=C(C=C1)CC(=O)NC2=CC=CC3=CC=CC=C32

> <PUBCHEM_CACTVS_TPSA>
29.1

> <PUBCHEM_MONOISOTOPIC_WEIGHT>
303.162314

> <PUBCHEM_TOTAL_CHARGE>
0

> <PUBCHEM_HEAVY_ATOM_COUNT>
23

> <PUBCHEM_ATOM_DEF_STEREO_COUNT>
0

> <PUBCHEM_ATOM_UDEF_STEREO_COUNT>
0

> <PUBCHEM_BOND_DEF_STEREO_COUNT>
0

> <PUBCHEM_BOND_UDEF_STEREO_COUNT>
0

> <PUBCHEM_ISOTOPIC_ATOM_COUNT>
0

> <PUBCHEM_COMPONENT_COUNT>
1

> <PUBCHEM_CACTVS_TAUTO_COUNT>
3

> <PUBCHEM_COORDINATE_TYPE>
1
5
255

> <PUBCHEM_BONDANNOTATIONS>
13  14  8
13  15  8
13  18  8
14  17  8
15  19  8
15  20  8
17  21  8
18  22  8
19  21  8
20  23  8
22  23  8
4  7  8
4  8  8
5  11  8
5  12  8
7  11  8
8  12  8

$$$$
