44814607
  -OEChem-12041212052D

 20 20  0     0  0  0  0  0  0999 V2000
    4.5981    2.5000    0.0000 Br  0  0  0  0  0  0  0  0  0  0  0  0
    3.7320    2.0000    0.0000 N   0  0  0  0  0  0  0  0  0  0  0  0
    2.8660    0.5000    0.0000 C   0  0  0  0  0  0  0  0  0  0  0  0
    2.8660   -0.5000    0.0000 C   0  0  0  0  0  0  0  0  0  0  0  0
    3.7320    1.0000    0.0000 C   0  0  0  0  0  0  0  0  0  0  0  0
    2.0000   -1.0000    0.0000 C   0  0  0  0  0  0  0  0  0  0  0  0
    3.7320   -1.0000    0.0000 C   0  0  0  0  0  0  0  0  0  0  0  0
    2.0000   -2.0000    0.0000 C   0  0  0  0  0  0  0  0  0  0  0  0
    3.7320   -2.0000    0.0000 C   0  0  0  0  0  0  0  0  0  0  0  0
    2.8660   -2.5000    0.0000 C   0  0  0  0  0  0  0  0  0  0  0  0
    2.6540    1.0826    0.0000 H   0  0  0  0  0  0  0  0  0  0  0  0
    2.2554    0.3923    0.0000 H   0  0  0  0  0  0  0  0  0  0  0  0
    3.9441    0.4174    0.0000 H   0  0  0  0  0  0  0  0  0  0  0  0
    4.3426    1.1077    0.0000 H   0  0  0  0  0  0  0  0  0  0  0  0
    1.4631   -0.6900    0.0000 H   0  0  0  0  0  0  0  0  0  0  0  0
    4.2690   -0.6900    0.0000 H   0  0  0  0  0  0  0  0  0  0  0  0
    1.4631   -2.3100    0.0000 H   0  0  0  0  0  0  0  0  0  0  0  0
    4.2690   -2.3100    0.0000 H   0  0  0  0  0  0  0  0  0  0  0  0
    2.8660   -3.1200    0.0000 H   0  0  0  0  0  0  0  0  0  0  0  0
    3.1951    2.3100    0.0000 H   0  0  0  0  0  0  0  0  0  0  0  0
  1  2  1  0  0  0  0
  2  5  1  0  0  0  0
  2 20  1  0  0  0  0
  3  4  1  0  0  0  0
  3  5  1  0  0  0  0
  3 11  1  0  0  0  0
  3 12  1  0  0  0  0
  4  6  2  0  0  0  0
  4  7  1  0  0  0  0
  5 13  1  0  0  0  0
  5 14  1  0  0  0  0
  6  8  1  0  0  0  0
  6 15  1  0  0  0  0
  7  9  2  0  0  0  0
  7 16  1  0  0  0  0
  8 10  2  0  0  0  0
  8 17  1  0  0  0  0
  9 10  1  0  0  0  0
  9 18  1  0  0  0  0
 10 19  1  0  0  0  0
M  END
> <PUBCHEM_COMPOUND_CID>
44814607

> <PUBCHEM_COMPOUND_CANONICALIZED>
1

> <PUBCHEM_CACTVS_COMPLEXITY>
79.3

> <PUBCHEM_CACTVS_HBOND_ACCEPTOR>
1

> <PUBCHEM_CACTVS_HBOND_DONOR>
1

> <PUBCHEM_CACTVS_ROTATABLE_BOND>
3

> <PUBCHEM_CACTVS_SUBSKEYS>
AAADccByAAAAEAAAAAAAAAAAAAAAAAAAAAAwAAAAAAAAAAABAAAAHAAQEAAADADBGAQwAIBAAACAAiBCAAACAAAgAAAIiIAAAIgIICKAkRGAIAAgkAAIiAcQgIAOAAAAAAAAAAAAAAAAAAAAAAAAAAAAAA==

> <PUBCHEM_IUPAC_OPENEYE_NAME>
N-bromo-2-phenyl-ethanamine

> <PUBCHEM_IUPAC_CAS_NAME>
N-bromo-2-phenylethanamine

> <PUBCHEM_IUPAC_NAME>
N-bromo-2-phenylethanamine

> <PUBCHEM_IUPAC_SYSTEMATIC_NAME>
N-bromanyl-2-phenyl-ethanamine

> <PUBCHEM_IUPAC_TRADITIONAL_NAME>
bromo(phenethyl)amine

> <PUBCHEM_IUPAC_INCHI>
InChI=1S/C8H10BrN/c9-10-7-6-8-4-2-1-3-5-8/h1-5,10H,6-7H2

> <PUBCHEM_IUPAC_INCHIKEY>
QADHFBHNTDGUJQ-UHFFFAOYSA-N

> <PUBCHEM_XLOGP3>
2.4

> <PUBCHEM_EXACT_MASS>
198.999661

> <PUBCHEM_MOLECULAR_FORMULA>
C8H10BrN

> <PUBCHEM_MOLECULAR_WEIGHT>
200.0757

> <PUBCHEM_OPENEYE_CAN_SMILES>
C1=CC=C(C=C1)CCNBr

> <PUBCHEM_OPENEYE_ISO_SMILES>
C1=CC=C(C=C1)CCNBr

> <PUBCHEM_CACTVS_TPSA>
12

> <PUBCHEM_MONOISOTOPIC_WEIGHT>
198.999661

> <PUBCHEM_TOTAL_CHARGE>
0

> <PUBCHEM_HEAVY_ATOM_COUNT>
10

> <PUBCHEM_ATOM_DEF_STEREO_COUNT>
0

> <PUBCHEM_ATOM_UDEF_STEREO_COUNT>
0

> <PUBCHEM_BOND_DEF_STEREO_COUNT>
0

> <PUBCHEM_BOND_UDEF_STEREO_COUNT>
0

> <PUBCHEM_ISOTOPIC_ATOM_COUNT>
0

> <PUBCHEM_COMPONENT_COUNT>
1

> <PUBCHEM_CACTVS_TAUTO_COUNT>
1

> <PUBCHEM_COORDINATE_TYPE>
1
5
255

> <PUBCHEM_BONDANNOTATIONS>
4  6  8
4  7  8
6  8  8
7  9  8
8  10  8
9  10  8

$$$$
44814795
  -OEChem-12041212052D

 24 25  0     0  0  0  0  0  0999 V2000
    7.2566    1.9871    0.0000 Br  0  0  0  0  0  0  0  0  0  0  0  0
    5.6103    2.5252    0.0000 Br  0  0  0  0  0  0  0  0  0  0  0  0
    4.6783   -1.9358    0.0000 N   0  0  0  0  0  0  0  0  0  0  0  0
    6.2781    1.7809    0.0000 N   0  0  0  0  0  0  0  0  0  0  0  0
    4.6783   -0.3264    0.0000 C   0  0  0  0  0  0  0  0  0  0  0  0
    3.7320   -0.6311    0.0000 C   0  0  0  0  0  0  0  0  0  0  0  0
    4.9889    0.6241    0.0000 C   0  0  0  0  0  0  0  0  0  0  0  0
    3.7320   -1.6311    0.0000 C   0  0  0  0  0  0  0  0  0  0  0  0
    5.2619   -1.1311    0.0000 C   0  0  0  0  0  0  0  0  0  0  0  0
    5.9674    0.8304    0.0000 C   0  0  0  0  0  0  0  0  0  0  0  0
    2.8660   -0.1311    0.0000 C   0  0  0  0  0  0  0  0  0  0  0  0
    2.8660   -2.1311    0.0000 C   0  0  0  0  0  0  0  0  0  0  0  0
    2.0000   -0.6311    0.0000 C   0  0  0  0  0  0  0  0  0  0  0  0
    2.0000   -1.6311    0.0000 C   0  0  0  0  0  0  0  0  0  0  0  0
    4.9684    1.2438    0.0000 H   0  0  0  0  0  0  0  0  0  0  0  0
    4.3751    0.7115    0.0000 H   0  0  0  0  0  0  0  0  0  0  0  0
    5.8819   -1.1311    0.0000 H   0  0  0  0  0  0  0  0  0  0  0  0
    4.8709   -2.5252    0.0000 H   0  0  0  0  0  0  0  0  0  0  0  0
    5.9880    0.2107    0.0000 H   0  0  0  0  0  0  0  0  0  0  0  0
    6.5812    0.7430    0.0000 H   0  0  0  0  0  0  0  0  0  0  0  0
    2.8660    0.4889    0.0000 H   0  0  0  0  0  0  0  0  0  0  0  0
    2.8660   -2.7511    0.0000 H   0  0  0  0  0  0  0  0  0  0  0  0
    1.4631   -0.3211    0.0000 H   0  0  0  0  0  0  0  0  0  0  0  0
    1.4631   -1.9411    0.0000 H   0  0  0  0  0  0  0  0  0  0  0  0
  1  4  1  0  0  0  0
  2  4  1  0  0  0  0
  3  8  1  0  0  0  0
  3  9  1  0  0  0  0
  3 18  1  0  0  0  0
  4 10  1  0  0  0  0
  5  6  1  0  0  0  0
  5  7  1  0  0  0  0
  5  9  2  0  0  0  0
  6  8  1  0  0  0  0
  6 11  2  0  0  0  0
  7 10  1  0  0  0  0
  7 15  1  0  0  0  0
  7 16  1  0  0  0  0
  8 12  2  0  0  0  0
  9 17  1  0  0  0  0
 10 19  1  0  0  0  0
 10 20  1  0  0  0  0
 11 13  1  0  0  0  0
 11 21  1  0  0  0  0
 12 14  1  0  0  0  0
 12 22  1  0  0  0  0
 13 14  2  0  0  0  0
 13 23  1  0  0  0  0
 14 24  1  0  0  0  0
M  END
> <PUBCHEM_COMPOUND_CID>
44814795

> <PUBCHEM_COMPOUND_CANONICALIZED>
1

> <PUBCHEM_CACTVS_COMPLEXITY>
187

> <PUBCHEM_CACTVS_HBOND_ACCEPTOR>
1

> <PUBCHEM_CACTVS_HBOND_DONOR>
1

> <PUBCHEM_CACTVS_ROTATABLE_BOND>
2

> <PUBCHEM_CACTVS_SUBSKEYS>
AAADccBzAAAAGAAAAAAAAAAAAAAAAWAAAAAwAAAAAAAAAFgB8AAAHAAQEAAADAjBHgQ8wPLJkACgAzRnRACCgCAxAiAI2aA4ZJgIIOLAkZGEIAhgkADIyAcQgMAOgAAAAAACAAAAAAAAAAQAAAAAAAAAAA==

> <PUBCHEM_IUPAC_OPENEYE_NAME>
N,N-dibromo-2-(1H-indol-3-yl)ethanamine

> <PUBCHEM_IUPAC_CAS_NAME>
N,N-dibromo-2-(1H-indol-3-yl)ethanamine

> <PUBCHEM_IUPAC_NAME>
N,N-dibromo-2-(1H-indol-3-yl)ethanamine

> <PUBCHEM_IUPAC_SYSTEMATIC_NAME>
N,N-bis(bromanyl)-2-(1H-indol-3-yl)ethanamine

> <PUBCHEM_IUPAC_TRADITIONAL_NAME>
dibromo-[2-(1H-indol-3-yl)ethyl]amine

> <PUBCHEM_IUPAC_INCHI>
InChI=1S/C10H10Br2N2/c11-14(12)6-5-8-7-13-10-4-2-1-3-9(8)10/h1-4,7,13H,5-6H2

> <PUBCHEM_IUPAC_INCHIKEY>
ZGPWNXSIFQCDFJ-UHFFFAOYSA-N

> <PUBCHEM_XLOGP3>
3.5

> <PUBCHEM_EXACT_MASS>
317.919026

> <PUBCHEM_MOLECULAR_FORMULA>
C10H10Br2N2

> <PUBCHEM_MOLECULAR_WEIGHT>
318.0078

> <PUBCHEM_OPENEYE_CAN_SMILES>
C1=CC=C2C(=C1)C(=CN2)CCN(Br)Br

> <PUBCHEM_OPENEYE_ISO_SMILES>
C1=CC=C2C(=C1)C(=CN2)CCN(Br)Br

> <PUBCHEM_CACTVS_TPSA>
19

> <PUBCHEM_MONOISOTOPIC_WEIGHT>
315.921073

> <PUBCHEM_TOTAL_CHARGE>
0

> <PUBCHEM_HEAVY_ATOM_COUNT>
14

> <PUBCHEM_ATOM_DEF_STEREO_COUNT>
0

> <PUBCHEM_ATOM_UDEF_STEREO_COUNT>
0

> <PUBCHEM_BOND_DEF_STEREO_COUNT>
0

> <PUBCHEM_BOND_UDEF_STEREO_COUNT>
0

> <PUBCHEM_ISOTOPIC_ATOM_COUNT>
0

> <PUBCHEM_COMPONENT_COUNT>
1

> <PUBCHEM_CACTVS_TAUTO_COUNT>
1

> <PUBCHEM_COORDINATE_TYPE>
1
5
255

> <PUBCHEM_BONDANNOTATIONS>
11  13  8
12  14  8
13  14  8
3  8  8
3  9  8
5  6  8
5  9  8
6  11  8
6  8  8
8  12  8

$$$$
44814963
  -OEChem-12041212052D

 23 23  0     1  0  0  0  0  0999 V2000
    4.5981    2.5000    0.0000 Br  0  0  0  0  0  0  0  0  0  0  0  0
    2.8660    2.5000    0.0000 Br  0  0  0  0  0  0  0  0  0  0  0  0
    3.7320    2.0000    0.0000 N   0  0  0  0  0  0  0  0  0  0  0  0
    3.7320    1.0000    0.0000 C   0  0  3  0  0  0  0  0  0  0  0  0
    2.8660    0.5000    0.0000 C   0  0  0  0  0  0  0  0  0  0  0  0
    2.8660   -0.5000    0.0000 C   0  0  0  0  0  0  0  0  0  0  0  0
    4.5981    0.5000    0.0000 C   0  0  0  0  0  0  0  0  0  0  0  0
    2.0000   -1.0000    0.0000 C   0  0  0  0  0  0  0  0  0  0  0  0
    3.7320   -1.0000    0.0000 C   0  0  0  0  0  0  0  0  0  0  0  0
    2.0000   -2.0000    0.0000 C   0  0  0  0  0  0  0  0  0  0  0  0
    3.7320   -2.0000    0.0000 C   0  0  0  0  0  0  0  0  0  0  0  0
    2.8660   -2.5000    0.0000 C   0  0  0  0  0  0  0  0  0  0  0  0
    4.2690    1.3100    0.0000 H   0  0  0  0  0  0  0  0  0  0  0  0
    2.6540    1.0826    0.0000 H   0  0  0  0  0  0  0  0  0  0  0  0
    2.2554    0.3923    0.0000 H   0  0  0  0  0  0  0  0  0  0  0  0
    4.2881   -0.0369    0.0000 H   0  0  0  0  0  0  0  0  0  0  0  0
    5.1350    0.1900    0.0000 H   0  0  0  0  0  0  0  0  0  0  0  0
    4.9081    1.0369    0.0000 H   0  0  0  0  0  0  0  0  0  0  0  0
    1.4631   -0.6900    0.0000 H   0  0  0  0  0  0  0  0  0  0  0  0
    4.2690   -0.6900    0.0000 H   0  0  0  0  0  0  0  0  0  0  0  0
    1.4631   -2.3100    0.0000 H   0  0  0  0  0  0  0  0  0  0  0  0
    4.2690   -2.3100    0.0000 H   0  0  0  0  0  0  0  0  0  0  0  0
    2.8660   -3.1200    0.0000 H   0  0  0  0  0  0  0  0  0  0  0  0
  1  3  1  0  0  0  0
  2  3  1  0  0  0  0
  3  4  1  0  0  0  0
  4  5  1  0  0  0  0
  4  7  1  0  0  0  0
  4 13  1  0  0  0  0
  5  6  1  0  0  0  0
  5 14  1  0  0  0  0
  5 15  1  0  0  0  0
  6  8  2  0  0  0  0
  6  9  1  0  0  0  0
  7 16  1  0  0  0  0
  7 17  1  0  0  0  0
  7 18  1  0  0  0  0
  8 10  1  0  0  0  0
  8 19  1  0  0  0  0
  9 11  2  0  0  0  0
  9 20  1  0  0  0  0
 10 12  2  0  0  0  0
 10 21  1  0  0  0  0
 11 12  1  0  0  0  0
 11 22  1  0  0  0  0
 12 23  1  0  0  0  0
M  END
> <PUBCHEM_COMPOUND_CID>
44814963

> <PUBCHEM_COMPOUND_CANONICALIZED>
1

> <PUBCHEM_CACTVS_COMPLEXITY>
122

> <PUBCHEM_CACTVS_HBOND_ACCEPTOR>
1

> <PUBCHEM_CACTVS_HBOND_DONOR>
0

> <PUBCHEM_CACTVS_ROTATABLE_BOND>
2

> <PUBCHEM_CACTVS_SUBSKEYS>
AAADccByAAAAGAAAAAAAAAAAAAAAAAAAAAAwAAAAAAAAAAABAAAAHAAAEAAADCjBGAQyAIAAAACAAiBCAAACAAAgAAAIiAAAAIgIICKAkRGAIAAggAAIiAcQgIAOAAAAAAAAAAAAAAAAAAAAAAAAAAAAAA==

> <PUBCHEM_IUPAC_OPENEYE_NAME>
N,N-dibromo-1-phenyl-propan-2-amine

> <PUBCHEM_IUPAC_CAS_NAME>
N,N-dibromo-1-phenyl-2-propanamine

> <PUBCHEM_IUPAC_NAME>
N,N-dibromo-1-phenylpropan-2-amine

> <PUBCHEM_IUPAC_SYSTEMATIC_NAME>
N,N-bis(bromanyl)-1-phenyl-propan-2-amine

> <PUBCHEM_IUPAC_TRADITIONAL_NAME>
dibromo-(1-methyl-2-phenyl-ethyl)amine

> <PUBCHEM_IUPAC_INCHI>
InChI=1S/C9H11Br2N/c1-8(12(10)11)7-9-5-3-2-4-6-9/h2-6,8H,7H2,1H3

> <PUBCHEM_IUPAC_INCHIKEY>
IOFMAZDIBXUPKV-UHFFFAOYSA-N

> <PUBCHEM_XLOGP3>
3.7

> <PUBCHEM_EXACT_MASS>
292.923777

> <PUBCHEM_MOLECULAR_FORMULA>
C9H11Br2N

> <PUBCHEM_MOLECULAR_WEIGHT>
292.99834

> <PUBCHEM_OPENEYE_CAN_SMILES>
CC(CC1=CC=CC=C1)N(Br)Br

> <PUBCHEM_OPENEYE_ISO_SMILES>
CC(CC1=CC=CC=C1)N(Br)Br

> <PUBCHEM_CACTVS_TPSA>
3.2

> <PUBCHEM_MONOISOTOPIC_WEIGHT>
290.925824

> <PUBCHEM_TOTAL_CHARGE>
0

> <PUBCHEM_HEAVY_ATOM_COUNT>
12

> <PUBCHEM_ATOM_DEF_STEREO_COUNT>
0

> <PUBCHEM_ATOM_UDEF_STEREO_COUNT>
1

> <PUBCHEM_BOND_DEF_STEREO_COUNT>
0

> <PUBCHEM_BOND_UDEF_STEREO_COUNT>
0

> <PUBCHEM_ISOTOPIC_ATOM_COUNT>
0

> <PUBCHEM_COMPONENT_COUNT>
1

> <PUBCHEM_CACTVS_TAUTO_COUNT>
1

> <PUBCHEM_COORDINATE_TYPE>
1
5
255

> <PUBCHEM_BONDANNOTATIONS>
10  12  8
11  12  8
4  7  3
6  8  8
6  9  8
8  10  8
9  11  8

$$$$
44814970
  -OEChem-12041212052D

 24 25  0     1  0  0  0  0  0999 V2000
    7.2566    1.9871    0.0000 Br  0  0  0  0  0  0  0  0  0  0  0  0
    5.6103    2.5252    0.0000 Cl  0  0  0  0  0  0  0  0  0  0  0  0
    4.6783   -1.9358    0.0000 N   0  0  0  0  0  0  0  0  0  0  0  0
    6.2781    1.7809    0.0000 N   0  0  3  0  0  0  0  0  0  0  0  0
    4.6783   -0.3264    0.0000 C   0  0  0  0  0  0  0  0  0  0  0  0
    3.7320   -0.6311    0.0000 C   0  0  0  0  0  0  0  0  0  0  0  0
    4.9889    0.6241    0.0000 C   0  0  0  0  0  0  0  0  0  0  0  0
    3.7320   -1.6311    0.0000 C   0  0  0  0  0  0  0  0  0  0  0  0
    5.2619   -1.1311    0.0000 C   0  0  0  0  0  0  0  0  0  0  0  0
    5.9674    0.8304    0.0000 C   0  0  0  0  0  0  0  0  0  0  0  0
    2.8660   -0.1311    0.0000 C   0  0  0  0  0  0  0  0  0  0  0  0
    2.8660   -2.1311    0.0000 C   0  0  0  0  0  0  0  0  0  0  0  0
    2.0000   -0.6311    0.0000 C   0  0  0  0  0  0  0  0  0  0  0  0
    2.0000   -1.6311    0.0000 C   0  0  0  0  0  0  0  0  0  0  0  0
    4.9684    1.2438    0.0000 H   0  0  0  0  0  0  0  0  0  0  0  0
    4.3751    0.7115    0.0000 H   0  0  0  0  0  0  0  0  0  0  0  0
    5.8819   -1.1311    0.0000 H   0  0  0  0  0  0  0  0  0  0  0  0
    4.8709   -2.5252    0.0000 H   0  0  0  0  0  0  0  0  0  0  0  0
    5.9880    0.2107    0.0000 H   0  0  0  0  0  0  0  0  0  0  0  0
    6.5812    0.7430    0.0000 H   0  0  0  0  0  0  0  0  0  0  0  0
    2.8660    0.4889    0.0000 H   0  0  0  0  0  0  0  0  0  0  0  0
    2.8660   -2.7511    0.0000 H   0  0  0  0  0  0  0  0  0  0  0  0
    1.4631   -0.3211    0.0000 H   0  0  0  0  0  0  0  0  0  0  0  0
    1.4631   -1.9411    0.0000 H   0  0  0  0  0  0  0  0  0  0  0  0
  1  4  1  0  0  0  0
  2  4  1  0  0  0  0
  3  8  1  0  0  0  0
  3  9  1  0  0  0  0
  3 18  1  0  0  0  0
  4 10  1  0  0  0  0
  5  6  1  0  0  0  0
  5  7  1  0  0  0  0
  5  9  2  0  0  0  0
  6  8  1  0  0  0  0
  6 11  2  0  0  0  0
  7 10  1  0  0  0  0
  7 15  1  0  0  0  0
  7 16  1  0  0  0  0
  8 12  2  0  0  0  0
  9 17  1  0  0  0  0
 10 19  1  0  0  0  0
 10 20  1  0  0  0  0
 11 13  1  0  0  0  0
 11 21  1  0  0  0  0
 12 14  1  0  0  0  0
 12 22  1  0  0  0  0
 13 14  2  0  0  0  0
 13 23  1  0  0  0  0
 14 24  1  0  0  0  0
M  END
> <PUBCHEM_COMPOUND_CID>
44814970

> <PUBCHEM_COMPOUND_CANONICALIZED>
1

> <PUBCHEM_CACTVS_COMPLEXITY>
191

> <PUBCHEM_CACTVS_HBOND_ACCEPTOR>
1

> <PUBCHEM_CACTVS_HBOND_DONOR>
1

> <PUBCHEM_CACTVS_ROTATABLE_BOND>
3

> <PUBCHEM_CACTVS_SUBSKEYS>
AAADccBzAAAEEAAAAAAAAAAAAAAAAWAAAAAwAAAAAAAAAFgB8AAAHAAQMAAADAjBHgQ8wPLJkACgAzRnRACCgCAxAiAI2aA4ZJgIIOLAkZGEIAhgkADIyAcQgMAOgAAAAAACAAAAAAAAAAQAAAAAAAAAAA==

> <PUBCHEM_IUPAC_OPENEYE_NAME>
N-bromo-N-chloro-2-(1H-indol-3-yl)ethanamine

> <PUBCHEM_IUPAC_CAS_NAME>
N-bromo-N-chloro-2-(1H-indol-3-yl)ethanamine

> <PUBCHEM_IUPAC_NAME>
N-bromo-N-chloro-2-(1H-indol-3-yl)ethanamine

> <PUBCHEM_IUPAC_SYSTEMATIC_NAME>
N-bromanyl-N-chloranyl-2-(1H-indol-3-yl)ethanamine

> <PUBCHEM_IUPAC_TRADITIONAL_NAME>
bromo-chloro-[2-(1H-indol-3-yl)ethyl]amine

> <PUBCHEM_IUPAC_INCHI>
InChI=1S/C10H10BrClN2/c11-14(12)6-5-8-7-13-10-4-2-1-3-9(8)10/h1-4,7,13H,5-6H2

> <PUBCHEM_IUPAC_INCHIKEY>
GDKANAKTHMKRDV-UHFFFAOYSA-N

> <PUBCHEM_XLOGP3>
3.3

> <PUBCHEM_EXACT_MASS>
271.971588

> <PUBCHEM_MOLECULAR_FORMULA>
C10H10BrClN2

> <PUBCHEM_MOLECULAR_WEIGHT>
273.5568

> <PUBCHEM_OPENEYE_CAN_SMILES>
C1=CC=C2C(=C1)C(=CN2)CCN(Cl)Br

> <PUBCHEM_OPENEYE_ISO_SMILES>
C1=CC=C2C(=C1)C(=CN2)CCN(Cl)Br

> <PUBCHEM_CACTVS_TPSA>
19

> <PUBCHEM_MONOISOTOPIC_WEIGHT>
271.971588

> <PUBCHEM_TOTAL_CHARGE>
0

> <PUBCHEM_HEAVY_ATOM_COUNT>
14

> <PUBCHEM_ATOM_DEF_STEREO_COUNT>
0

> <PUBCHEM_ATOM_UDEF_STEREO_COUNT>
0

> <PUBCHEM_BOND_DEF_STEREO_COUNT>
0

> <PUBCHEM_BOND_UDEF_STEREO_COUNT>
0

> <PUBCHEM_ISOTOPIC_ATOM_COUNT>
0

> <PUBCHEM_COMPONENT_COUNT>
1

> <PUBCHEM_CACTVS_TAUTO_COUNT>
1

> <PUBCHEM_COORDINATE_TYPE>
1
5
255

> <PUBCHEM_BONDANNOTATIONS>
11  13  8
12  14  8
13  14  8
3  8  8
3  9  8
5  6  8
5  9  8
6  11  8
6  8  8
8  12  8

$$$$
44816372
  -OEChem-12041212052D

 57 59  0     1  0  0  0  0  0999 V2000
   11.1972    5.4720    0.0000 F   0  0  0  0  0  0  0  0  0  0  0  0
    9.8312    5.8380    0.0000 F   0  0  0  0  0  0  0  0  0  0  0  0
   10.8312    4.1060    0.0000 F   0  0  0  0  0  0  0  0  0  0  0  0
    4.2690   -2.5280    0.0000 O   0  0  0  0  0  0  0  0  0  0  0  0
    6.0010   -2.5280    0.0000 O   0  0  0  0  0  0  0  0  0  0  0  0
    4.2690   -5.5280    0.0000 O   0  0  0  0  0  0  0  0  0  0  0  0
    2.5369   -4.5280    0.0000 O   0  0  0  0  0  0  0  0  0  0  0  0
    6.0010   -4.5280    0.0000 O   0  0  0  0  0  0  0  0  0  0  0  0
    2.5369   -1.5280    0.0000 O   0  0  0  0  0  0  0  0  0  0  0  0
    6.0010    3.4720    0.0000 O   0  0  0  0  0  0  0  0  0  0  0  0
    6.8671    1.9720    0.0000 N   0  0  0  0  0  0  0  0  0  0  0  0
    4.2690   -4.5280    0.0000 C   0  0  3  0  0  0  0  0  0  0  0  0
    3.4030   -4.0280    0.0000 C   0  0  3  0  0  0  0  0  0  0  0  0
    5.1350   -4.0280    0.0000 C   0  0  3  0  0  0  0  0  0  0  0  0
    3.4030   -3.0280    0.0000 C   0  0  3  0  0  0  0  0  0  0  0  0
    5.1350   -3.0280    0.0000 C   0  0  3  0  0  0  0  0  0  0  0  0
    2.5369   -2.5280    0.0000 C   0  0  0  0  0  0  0  0  0  0  0  0
    6.0010   -1.5280    0.0000 C   0  0  0  0  0  0  0  0  0  0  0  0
    6.8671   -1.0280    0.0000 C   0  0  0  0  0  0  0  0  0  0  0  0
    5.1350   -1.0280    0.0000 C   0  0  0  0  0  0  0  0  0  0  0  0
    6.0010    0.4720    0.0000 C   0  0  0  0  0  0  0  0  0  0  0  0
    6.0010    1.4720    0.0000 C   0  0  1  0  0  0  0  0  0  0  0  0
    6.8671   -0.0280    0.0000 C   0  0  0  0  0  0  0  0  0  0  0  0
    5.1350   -0.0280    0.0000 C   0  0  0  0  0  0  0  0  0  0  0  0
    5.1350    1.9720    0.0000 C   0  0  0  0  0  0  0  0  0  0  0  0
    6.8671    2.9720    0.0000 C   0  0  0  0  0  0  0  0  0  0  0  0
    7.7331    3.4720    0.0000 C   0  0  0  0  0  0  0  0  0  0  0  0
    8.5991    2.9720    0.0000 C   0  0  0  0  0  0  0  0  0  0  0  0
    7.7331    4.4720    0.0000 C   0  0  0  0  0  0  0  0  0  0  0  0
    9.4651    4.4720    0.0000 C   0  0  0  0  0  0  0  0  0  0  0  0
    9.4651    3.4720    0.0000 C   0  0  0  0  0  0  0  0  0  0  0  0
    8.5991    4.9720    0.0000 C   0  0  0  0  0  0  0  0  0  0  0  0
   10.3312    4.9720    0.0000 C   0  0  0  0  0  0  0  0  0  0  0  0
    4.8059   -4.8380    0.0000 H   0  0  0  0  0  0  0  0  0  0  0  0
    3.4030   -4.6480    0.0000 H   0  0  0  0  0  0  0  0  0  0  0  0
    5.1350   -4.6480    0.0000 H   0  0  0  0  0  0  0  0  0  0  0  0
    3.4030   -2.4080    0.0000 H   0  0  0  0  0  0  0  0  0  0  0  0
    5.1350   -2.4080    0.0000 H   0  0  0  0  0  0  0  0  0  0  0  0
    1.9264   -2.4204    0.0000 H   0  0  0  0  0  0  0  0  0  0  0  0
    2.3249   -3.1106    0.0000 H   0  0  0  0  0  0  0  0  0  0  0  0
    3.7320   -5.8380    0.0000 H   0  0  0  0  0  0  0  0  0  0  0  0
    2.0000   -4.2180    0.0000 H   0  0  0  0  0  0  0  0  0  0  0  0
    6.5380   -4.2180    0.0000 H   0  0  0  0  0  0  0  0  0  0  0  0
    2.0000   -1.2180    0.0000 H   0  0  0  0  0  0  0  0  0  0  0  0
    7.4040   -1.3380    0.0000 H   0  0  0  0  0  0  0  0  0  0  0  0
    4.5981   -1.3380    0.0000 H   0  0  0  0  0  0  0  0  0  0  0  0
    6.5380    1.1620    0.0000 H   0  0  0  0  0  0  0  0  0  0  0  0
    7.4040    0.2820    0.0000 H   0  0  0  0  0  0  0  0  0  0  0  0
    4.5981    0.2820    0.0000 H   0  0  0  0  0  0  0  0  0  0  0  0
    5.4450    2.5089    0.0000 H   0  0  0  0  0  0  0  0  0  0  0  0
    4.5981    2.2820    0.0000 H   0  0  0  0  0  0  0  0  0  0  0  0
    4.8250    1.4350    0.0000 H   0  0  0  0  0  0  0  0  0  0  0  0
    7.4040    1.6620    0.0000 H   0  0  0  0  0  0  0  0  0  0  0  0
    8.5991    2.3520    0.0000 H   0  0  0  0  0  0  0  0  0  0  0  0
    7.1962    4.7820    0.0000 H   0  0  0  0  0  0  0  0  0  0  0  0
   10.0021    3.1620    0.0000 H   0  0  0  0  0  0  0  0  0  0  0  0
    8.5991    5.5920    0.0000 H   0  0  0  0  0  0  0  0  0  0  0  0
  1 33  1  0  0  0  0
  2 33  1  0  0  0  0
  3 33  1  0  0  0  0
  4 15  1  0  0  0  0
  4 16  1  0  0  0  0
  5 16  1  0  0  0  0
  5 18  1  0  0  0  0
  6 12  1  0  0  0  0
  6 41  1  0  0  0  0
  7 13  1  0  0  0  0
  7 42  1  0  0  0  0
  8 14  1  0  0  0  0
  8 43  1  0  0  0  0
  9 17  1  0  0  0  0
  9 44  1  0  0  0  0
 10 26  2  0  0  0  0
 22 11  1  1  0  0  0
 11 26  1  0  0  0  0
 11 53  1  0  0  0  0
 12 13  1  0  0  0  0
 12 14  1  0  0  0  0
 12 34  1  0  0  0  0
 13 15  1  0  0  0  0
 13 35  1  0  0  0  0
 14 16  1  0  0  0  0
 14 36  1  0  0  0  0
 15 17  1  0  0  0  0
 15 37  1  0  0  0  0
 16 38  1  0  0  0  0
 17 39  1  0  0  0  0
 17 40  1  0  0  0  0
 18 19  2  0  0  0  0
 18 20  1  0  0  0  0
 19 23  1  0  0  0  0
 19 45  1  0  0  0  0
 20 24  2  0  0  0  0
 20 46  1  0  0  0  0
 21 22  1  0  0  0  0
 21 23  2  0  0  0  0
 21 24  1  0  0  0  0
 22 25  1  0  0  0  0
 22 47  1  0  0  0  0
 23 48  1  0  0  0  0
 24 49  1  0  0  0  0
 25 50  1  0  0  0  0
 25 51  1  0  0  0  0
 25 52  1  0  0  0  0
 26 27  1  0  0  0  0
 27 28  2  0  0  0  0
 27 29  1  0  0  0  0
 28 31  1  0  0  0  0
 28 54  1  0  0  0  0
 29 32  2  0  0  0  0
 29 55  1  0  0  0  0
 30 31  2  0  0  0  0
 30 32  1  0  0  0  0
 30 33  1  0  0  0  0
 31 56  1  0  0  0  0
 32 57  1  0  0  0  0
M  END
> <PUBCHEM_COMPOUND_CID>
44816372

> <PUBCHEM_COMPOUND_CANONICALIZED>
1

> <PUBCHEM_CACTVS_COMPLEXITY>
636

> <PUBCHEM_CACTVS_HBOND_ACCEPTOR>
10

> <PUBCHEM_CACTVS_HBOND_DONOR>
5

> <PUBCHEM_CACTVS_ROTATABLE_BOND>
6

> <PUBCHEM_CACTVS_SUBSKEYS>
AAADceB6OYAAAAAAAAAAAAAAAAAAAAAAAAA0YIAAAAAAAAABQAAAHwAQCAAADDzxmBcyDoLABgCIAiFSEACCCAAkIAAIiIEODMgdNjKEtRumeSjl1hGPqYfY+I+OYAAAAAAAAADAAAAAAAAAAAAAAAAAAA==

> <PUBCHEM_IUPAC_OPENEYE_NAME>
4-(trifluoromethyl)-N-[(1R)-1-[4-[3,4,5-trihydroxy-6-(hydroxymethyl)tetrahydropyran-2-yl]oxyphenyl]ethyl]benzamide

> <PUBCHEM_IUPAC_CAS_NAME>
4-(trifluoromethyl)-N-[(1R)-1-[4-[[3,4,5-trihydroxy-6-(hydroxymethyl)-2-oxanyl]oxy]phenyl]ethyl]benzamide

> <PUBCHEM_IUPAC_NAME>
4-(trifluoromethyl)-N-[(1R)-1-[4-[3,4,5-trihydroxy-6-(hydroxymethyl)oxan-2-yl]oxyphenyl]ethyl]benzamide

> <PUBCHEM_IUPAC_SYSTEMATIC_NAME>
N-[(1R)-1-[4-[6-(hydroxymethyl)-3,4,5-tris(oxidanyl)oxan-2-yl]oxyphenyl]ethyl]-4-(trifluoromethyl)benzamide

> <PUBCHEM_IUPAC_TRADITIONAL_NAME>
4-(trifluoromethyl)-N-[(1R)-1-[4-(3,4,5-trihydroxy-6-methylol-tetrahydropyran-2-yl)oxyphenyl]ethyl]benzamide

> <PUBCHEM_IUPAC_INCHI>
InChI=1S/C22H24F3NO7/c1-11(26-20(31)13-2-6-14(7-3-13)22(23,24)25)12-4-8-15(9-5-12)32-21-19(30)18(29)17(28)16(10-27)33-21/h2-9,11,16-19,21,27-30H,10H2,1H3,(H,26,31)/t11-,16?,17?,18?,19?,21?/m1/s1

> <PUBCHEM_IUPAC_INCHIKEY>
QRZXWMQWMSMPGH-XVHAUAOTSA-N

> <PUBCHEM_XLOGP3>
2.2

> <PUBCHEM_EXACT_MASS>
471.150487

> <PUBCHEM_MOLECULAR_FORMULA>
C22H24F3NO7

> <PUBCHEM_MOLECULAR_WEIGHT>
471.42367

> <PUBCHEM_OPENEYE_CAN_SMILES>
CC(C1=CC=C(C=C1)OC2C(C(C(C(O2)CO)O)O)O)NC(=O)C3=CC=C(C=C3)C(F)(F)F

> <PUBCHEM_OPENEYE_ISO_SMILES>
C[C@H](C1=CC=C(C=C1)OC2C(C(C(C(O2)CO)O)O)O)NC(=O)C3=CC=C(C=C3)C(F)(F)F

> <PUBCHEM_CACTVS_TPSA>
129

> <PUBCHEM_MONOISOTOPIC_WEIGHT>
471.150487

> <PUBCHEM_TOTAL_CHARGE>
0

> <PUBCHEM_HEAVY_ATOM_COUNT>
33

> <PUBCHEM_ATOM_DEF_STEREO_COUNT>
1

> <PUBCHEM_ATOM_UDEF_STEREO_COUNT>
5

> <PUBCHEM_BOND_DEF_STEREO_COUNT>
0

> <PUBCHEM_BOND_UDEF_STEREO_COUNT>
0

> <PUBCHEM_ISOTOPIC_ATOM_COUNT>
0

> <PUBCHEM_COMPONENT_COUNT>
1

> <PUBCHEM_CACTVS_TAUTO_COUNT>
2

> <PUBCHEM_COORDINATE_TYPE>
1
5
255

> <PUBCHEM_BONDANNOTATIONS>
22  11  5
15  17  3
18  19  8
18  20  8
19  23  8
20  24  8
21  23  8
21  24  8
27  28  8
27  29  8
28  31  8
29  32  8
30  31  8
30  32  8
16  5  3
12  6  3
13  7  3
14  8  3

$$$$
44818873
  -OEChem-12041212052D

 50 50  0     1  0  0  0  0  0999 V2000
    8.0622   -3.5000    0.0000 Cl  0  0  0  0  0  0  0  0  0  0  0  0
    7.1962   -1.0000    0.0000 S   0  0  0  0  0  0  0  0  0  0  0  0
    5.4641   -1.0000    0.0000 O   0  0  0  0  0  0  0  0  0  0  0  0
    5.4641    2.0000    0.0000 O   0  0  0  0  0  0  0  0  0  0  0  0
    3.7320    1.0000    0.0000 O   0  0  0  0  0  0  0  0  0  0  0  0
    7.1962    1.0000    0.0000 O   0  0  0  0  0  0  0  0  0  0  0  0
    3.7320   -2.0000    0.0000 O   0  0  0  0  0  0  0  0  0  0  0  0
    7.1962    2.0000    0.0000 O   0  0  0  0  0  0  0  0  0  0  0  0
    2.8660   -0.5000    0.0000 O   0  0  0  0  0  0  0  0  0  0  0  0
    8.0622   -0.5000    0.0000 O   0  0  0  0  0  0  0  0  0  0  0  0
    2.0000   -2.0000    0.0000 O   0  0  0  0  0  0  0  0  0  0  0  0
    5.4641    1.0000    0.0000 C   0  0  1  0  0  0  0  0  0  0  0  0
    4.5981    0.5000    0.0000 C   0  0  1  0  0  0  0  0  0  0  0  0
    6.3301    0.5000    0.0000 C   0  0  2  0  0  0  0  0  0  0  0  0
    4.5981   -0.5000    0.0000 C   0  0  1  0  0  0  0  0  0  0  0  0
    6.3301   -0.5000    0.0000 C   0  0  2  0  0  0  0  0  0  0  0  0
    3.7320   -1.0000    0.0000 C   0  0  0  0  0  0  0  0  0  0  0  0
    7.1962   -2.0000    0.0000 C   0  0  0  0  0  0  0  0  0  0  0  0
    6.3301    2.5000    0.0000 C   0  0  0  0  0  0  0  0  0  0  0  0
    2.8660    0.5000    0.0000 C   0  0  0  0  0  0  0  0  0  0  0  0
    8.0622    0.5000    0.0000 C   0  0  0  0  0  0  0  0  0  0  0  0
    8.0622   -2.5000    0.0000 C   0  0  0  0  0  0  0  0  0  0  0  0
    6.3301    3.5000    0.0000 C   0  0  0  0  0  0  0  0  0  0  0  0
    2.0000    1.0000    0.0000 C   0  0  0  0  0  0  0  0  0  0  0  0
    2.8660   -2.5000    0.0000 C   0  0  0  0  0  0  0  0  0  0  0  0
    8.9282    1.0000    0.0000 C   0  0  0  0  0  0  0  0  0  0  0  0
    2.8660   -3.5000    0.0000 C   0  0  0  0  0  0  0  0  0  0  0  0
    6.0010    1.3100    0.0000 H   0  0  0  0  0  0  0  0  0  0  0  0
    4.5981    1.1200    0.0000 H   0  0  0  0  0  0  0  0  0  0  0  0
    6.8671    0.1900    0.0000 H   0  0  0  0  0  0  0  0  0  0  0  0
    4.5981   -1.1200    0.0000 H   0  0  0  0  0  0  0  0  0  0  0  0
    6.8671   -0.1900    0.0000 H   0  0  0  0  0  0  0  0  0  0  0  0
    3.5200   -0.4174    0.0000 H   0  0  0  0  0  0  0  0  0  0  0  0
    3.1215   -1.1077    0.0000 H   0  0  0  0  0  0  0  0  0  0  0  0
    6.5856   -1.8923    0.0000 H   0  0  0  0  0  0  0  0  0  0  0  0
    6.9841   -2.5826    0.0000 H   0  0  0  0  0  0  0  0  0  0  0  0
    8.6728   -2.6077    0.0000 H   0  0  0  0  0  0  0  0  0  0  0  0
    8.2742   -1.9174    0.0000 H   0  0  0  0  0  0  0  0  0  0  0  0
    6.9501    3.5000    0.0000 H   0  0  0  0  0  0  0  0  0  0  0  0
    6.3301    4.1200    0.0000 H   0  0  0  0  0  0  0  0  0  0  0  0
    5.7101    3.5000    0.0000 H   0  0  0  0  0  0  0  0  0  0  0  0
    2.3100    1.5369    0.0000 H   0  0  0  0  0  0  0  0  0  0  0  0
    1.4631    1.3100    0.0000 H   0  0  0  0  0  0  0  0  0  0  0  0
    1.6900    0.4631    0.0000 H   0  0  0  0  0  0  0  0  0  0  0  0
    9.2382    0.4631    0.0000 H   0  0  0  0  0  0  0  0  0  0  0  0
    9.4651    1.3100    0.0000 H   0  0  0  0  0  0  0  0  0  0  0  0
    8.6182    1.5369    0.0000 H   0  0  0  0  0  0  0  0  0  0  0  0
    2.2460   -3.5000    0.0000 H   0  0  0  0  0  0  0  0  0  0  0  0
    2.8660   -4.1200    0.0000 H   0  0  0  0  0  0  0  0  0  0  0  0
    3.4860   -3.5000    0.0000 H   0  0  0  0  0  0  0  0  0  0  0  0
  1 22  1  0  0  0  0
 16  2  1  6  0  0  0
  2 18  1  0  0  0  0
  3 15  1  0  0  0  0
  3 16  1  0  0  0  0
 12  4  1  6  0  0  0
  4 19  1  0  0  0  0
 13  5  1  1  0  0  0
  5 20  1  0  0  0  0
 14  6  1  1  0  0  0
  6 21  1  0  0  0  0
  7 17  1  0  0  0  0
  7 25  1  0  0  0  0
  8 19  2  0  0  0  0
  9 20  2  0  0  0  0
 10 21  2  0  0  0  0
 11 25  2  0  0  0  0
 12 13  1  0  0  0  0
 12 14  1  0  0  0  0
 12 28  1  0  0  0  0
 13 15  1  0  0  0  0
 13 29  1  0  0  0  0
 14 16  1  0  0  0  0
 14 30  1  0  0  0  0
 15 17  1  6  0  0  0
 15 31  1  0  0  0  0
 16 32  1  0  0  0  0
 17 33  1  0  0  0  0
 17 34  1  0  0  0  0
 18 22  1  0  0  0  0
 18 35  1  0  0  0  0
 18 36  1  0  0  0  0
 19 23  1  0  0  0  0
 20 24  1  0  0  0  0
 21 26  1  0  0  0  0
 22 37  1  0  0  0  0
 22 38  1  0  0  0  0
 23 39  1  0  0  0  0
 23 40  1  0  0  0  0
 23 41  1  0  0  0  0
 24 42  1  0  0  0  0
 24 43  1  0  0  0  0
 24 44  1  0  0  0  0
 25 27  1  0  0  0  0
 26 45  1  0  0  0  0
 26 46  1  0  0  0  0
 26 47  1  0  0  0  0
 27 48  1  0  0  0  0
 27 49  1  0  0  0  0
 27 50  1  0  0  0  0
M  END
> <PUBCHEM_COMPOUND_CID>
44818873

> <PUBCHEM_COMPOUND_CANONICALIZED>
1

> <PUBCHEM_CACTVS_COMPLEXITY>
556

> <PUBCHEM_CACTVS_HBOND_ACCEPTOR>
10

> <PUBCHEM_CACTVS_HBOND_DONOR>
0

> <PUBCHEM_CACTVS_ROTATABLE_BOND>
12

> <PUBCHEM_CACTVS_SUBSKEYS>
AAADceB4PABEAAAAAAAAAAAAAAAAAAAAAAAkAAAAAAAAAAAAAAAAGgYAAAAACBekwEKCCAAABAgIAACQCAAAAAAAABAAAAAAAAABAAIgAAACAAAFAAAiAAHAYAwAAAAAAAAAAAAAAAAAAAAAAAAAAAAAAA==

> <PUBCHEM_IUPAC_OPENEYE_NAME>
[(2R,3R,4S,5R,6S)-3,4,5-triacetoxy-6-(2-chloroethylsulfanyl)tetrahydropyran-2-yl]methyl acetate

> <PUBCHEM_IUPAC_CAS_NAME>
acetic acid [(2R,3R,4S,5R,6S)-3,4,5-triacetyloxy-6-(2-chloroethylthio)-2-oxanyl]methyl ester

> <PUBCHEM_IUPAC_NAME>
[(2R,3R,4S,5R,6S)-3,4,5-triacetyloxy-6-(2-chloroethylsulfanyl)oxan-2-yl]methyl acetate

> <PUBCHEM_IUPAC_SYSTEMATIC_NAME>
[(2R,3R,4S,5R,6S)-3,4,5-triacetyloxy-6-(2-chloroethylsulfanyl)oxan-2-yl]methyl ethanoate

> <PUBCHEM_IUPAC_TRADITIONAL_NAME>
acetic acid [(2R,3R,4S,5R,6S)-3,4,5-triacetoxy-6-(2-chloroethylthio)tetrahydropyran-2-yl]methyl ester

> <PUBCHEM_IUPAC_INCHI>
InChI=1S/C16H23ClO9S/c1-8(18)22-7-12-13(23-9(2)19)14(24-10(3)20)15(25-11(4)21)16(26-12)27-6-5-17/h12-16H,5-7H2,1-4H3/t12-,13-,14+,15-,16+/m1/s1

> <PUBCHEM_IUPAC_INCHIKEY>
JRMAUMZPAUSVIV-LJIZCISZSA-N

> <PUBCHEM_XLOGP3>
2

> <PUBCHEM_EXACT_MASS>
426.075131

> <PUBCHEM_MOLECULAR_FORMULA>
C16H23ClO9S

> <PUBCHEM_MOLECULAR_WEIGHT>
426.86642

> <PUBCHEM_OPENEYE_CAN_SMILES>
CC(=O)OCC1C(C(C(C(O1)SCCCl)OC(=O)C)OC(=O)C)OC(=O)C

> <PUBCHEM_OPENEYE_ISO_SMILES>
CC(=O)OC[C@@H]1[C@H]([C@@H]([C@H]([C@@H](O1)SCCCl)OC(=O)C)OC(=O)C)OC(=O)C

> <PUBCHEM_CACTVS_TPSA>
140

> <PUBCHEM_MONOISOTOPIC_WEIGHT>
426.075131

> <PUBCHEM_TOTAL_CHARGE>
0

> <PUBCHEM_HEAVY_ATOM_COUNT>
27

> <PUBCHEM_ATOM_DEF_STEREO_COUNT>
5

> <PUBCHEM_ATOM_UDEF_STEREO_COUNT>
0

> <PUBCHEM_BOND_DEF_STEREO_COUNT>
0

> <PUBCHEM_BOND_UDEF_STEREO_COUNT>
0

> <PUBCHEM_ISOTOPIC_ATOM_COUNT>
0

> <PUBCHEM_COMPONENT_COUNT>
1

> <PUBCHEM_CACTVS_TAUTO_COUNT>
1

> <PUBCHEM_COORDINATE_TYPE>
1
5
255

> <PUBCHEM_BONDANNOTATIONS>
15  17  6
16  2  6
12  4  6
13  5  5
14  6  5

$$$$
44820124
  -OEChem-12041212062D

 32 33  0     1  0  0  0  0  0999 V2000
    4.6783   -1.8327    0.0000 N   0  0  0  0  0  0  0  0  0  0  0  0
    4.9889    0.7272    0.0000 C   0  0  3  0  0  0  0  0  0  0  0  0
    4.6783   -0.2233    0.0000 C   0  0  0  0  0  0  0  0  0  0  0  0
    4.3211    1.4715    0.0000 C   0  0  0  0  0  0  0  0  0  0  0  0
    5.9674    0.9335    0.0000 C   0  0  0  0  0  0  0  0  0  0  0  0
    3.7320   -0.5280    0.0000 C   0  0  0  0  0  0  0  0  0  0  0  0
    3.7320   -1.5280    0.0000 C   0  0  0  0  0  0  0  0  0  0  0  0
    5.2619   -1.0280    0.0000 C   0  0  0  0  0  0  0  0  0  0  0  0
    4.6318    2.4221    0.0000 C   0  0  0  0  0  0  0  0  0  0  0  0
    2.8660   -0.0280    0.0000 C   0  0  0  0  0  0  0  0  0  0  0  0
    6.2781    1.8840    0.0000 C   0  0  0  0  0  0  0  0  0  0  0  0
    2.8660   -2.0280    0.0000 C   0  0  0  0  0  0  0  0  0  0  0  0
    2.0000   -0.5280    0.0000 C   0  0  0  0  0  0  0  0  0  0  0  0
    2.0000   -1.5280    0.0000 C   0  0  0  0  0  0  0  0  0  0  0  0
    7.2566    2.0902    0.0000 C   0  0  0  0  0  0  0  0  0  0  0  0
    5.1815    1.3166    0.0000 H   0  0  0  0  0  0  0  0  0  0  0  0
    3.7742    1.7636    0.0000 H   0  0  0  0  0  0  0  0  0  0  0  0
    3.9385    0.9836    0.0000 H   0  0  0  0  0  0  0  0  0  0  0  0
    5.9880    0.3138    0.0000 H   0  0  0  0  0  0  0  0  0  0  0  0
    6.5812    0.8461    0.0000 H   0  0  0  0  0  0  0  0  0  0  0  0
    5.8819   -1.0280    0.0000 H   0  0  0  0  0  0  0  0  0  0  0  0
    4.8709   -2.4221    0.0000 H   0  0  0  0  0  0  0  0  0  0  0  0
    5.2211    2.2294    0.0000 H   0  0  0  0  0  0  0  0  0  0  0  0
    4.8244    3.0114    0.0000 H   0  0  0  0  0  0  0  0  0  0  0  0
    4.0424    2.6147    0.0000 H   0  0  0  0  0  0  0  0  0  0  0  0
    2.8660    0.5920    0.0000 H   0  0  0  0  0  0  0  0  0  0  0  0
    5.8640    2.3454    0.0000 H   0  0  0  0  0  0  0  0  0  0  0  0
    2.8660   -2.6480    0.0000 H   0  0  0  0  0  0  0  0  0  0  0  0
    1.4631   -0.2180    0.0000 H   0  0  0  0  0  0  0  0  0  0  0  0
    1.4631   -1.8380    0.0000 H   0  0  0  0  0  0  0  0  0  0  0  0
    7.6707    1.6287    0.0000 H   0  0  0  0  0  0  0  0  0  0  0  0
    7.4492    2.6795    0.0000 H   0  0  0  0  0  0  0  0  0  0  0  0
  1  7  1  0  0  0  0
  1  8  1  0  0  0  0
  1 22  1  0  0  0  0
  2  3  1  0  0  0  0
  2  4  1  0  0  0  0
  2  5  1  0  0  0  0
  2 16  1  0  0  0  0
  3  6  1  0  0  0  0
  3  8  2  0  0  0  0
  4  9  1  0  0  0  0
  4 17  1  0  0  0  0
  4 18  1  0  0  0  0
  5 11  1  0  0  0  0
  5 19  1  0  0  0  0
  5 20  1  0  0  0  0
  6  7  1  0  0  0  0
  6 10  2  0  0  0  0
  7 12  2  0  0  0  0
  8 21  1  0  0  0  0
  9 23  1  0  0  0  0
  9 24  1  0  0  0  0
  9 25  1  0  0  0  0
 10 13  1  0  0  0  0
 10 26  1  0  0  0  0
 11 15  2  0  0  0  0
 11 27  1  0  0  0  0
 12 14  1  0  0  0  0
 12 28  1  0  0  0  0
 13 14  2  0  0  0  0
 13 29  1  0  0  0  0
 14 30  1  0  0  0  0
 15 31  1  0  0  0  0
 15 32  1  0  0  0  0
M  END
> <PUBCHEM_COMPOUND_CID>
44820124

> <PUBCHEM_COMPOUND_CANONICALIZED>
1

> <PUBCHEM_CACTVS_COMPLEXITY>
211

> <PUBCHEM_CACTVS_HBOND_ACCEPTOR>
0

> <PUBCHEM_CACTVS_HBOND_DONOR>
1

> <PUBCHEM_CACTVS_ROTATABLE_BOND>
4

> <PUBCHEM_CACTVS_SUBSKEYS>
AAADceByAAAAAAAAAAAAAAAAAAAAAWAAAAAwAAAAAAAAAFgB8AAAHAAQAAAADQjBHgQ+wPLJkACgAzRnRACCgCAxAiAI2aA4ZJgIIOLAkZGEIAhgkADIyAcQgMAOgAAAAAACAAAAAAAAAAQAAAAAAAAAAA==

> <PUBCHEM_IUPAC_OPENEYE_NAME>
3-(1-ethylbut-3-enyl)-1H-indole

> <PUBCHEM_IUPAC_CAS_NAME>
3-hex-5-en-3-yl-1H-indole

> <PUBCHEM_IUPAC_NAME>
3-hex-5-en-3-yl-1H-indole

> <PUBCHEM_IUPAC_SYSTEMATIC_NAME>
3-hex-5-en-3-yl-1H-indole

> <PUBCHEM_IUPAC_TRADITIONAL_NAME>
3-(1-ethylbut-3-enyl)-1H-indole

> <PUBCHEM_IUPAC_INCHI>
InChI=1S/C14H17N/c1-3-7-11(4-2)13-10-15-14-9-6-5-8-12(13)14/h3,5-6,8-11,15H,1,4,7H2,2H3

> <PUBCHEM_IUPAC_INCHIKEY>
PSETWOWZIWNMHH-UHFFFAOYSA-N

> <PUBCHEM_XLOGP3>
4.5

> <PUBCHEM_EXACT_MASS>
199.1361

> <PUBCHEM_MOLECULAR_FORMULA>
C14H17N

> <PUBCHEM_MOLECULAR_WEIGHT>
199.29148

> <PUBCHEM_OPENEYE_CAN_SMILES>
CCC(CC=C)C1=CNC2=CC=CC=C21

> <PUBCHEM_OPENEYE_ISO_SMILES>
CCC(CC=C)C1=CNC2=CC=CC=C21

> <PUBCHEM_CACTVS_TPSA>
15.8

> <PUBCHEM_MONOISOTOPIC_WEIGHT>
199.1361

> <PUBCHEM_TOTAL_CHARGE>
0

> <PUBCHEM_HEAVY_ATOM_COUNT>
15

> <PUBCHEM_ATOM_DEF_STEREO_COUNT>
0

> <PUBCHEM_ATOM_UDEF_STEREO_COUNT>
1

> <PUBCHEM_BOND_DEF_STEREO_COUNT>
0

> <PUBCHEM_BOND_UDEF_STEREO_COUNT>
0

> <PUBCHEM_ISOTOPIC_ATOM_COUNT>
0

> <PUBCHEM_COMPONENT_COUNT>
1

> <PUBCHEM_CACTVS_TAUTO_COUNT>
1

> <PUBCHEM_COORDINATE_TYPE>
1
5
255

> <PUBCHEM_BONDANNOTATIONS>
1  7  8
1  8  8
10  13  8
12  14  8
13  14  8
2  4  3
3  6  8
3  8  8
6  10  8
6  7  8
7  12  8

$$$$
