68427377
  -OEChem-05231305452D

 56 60  0     1  0  0  0  0  0999 V2000
    9.0480    0.8919    0.0000 O   0  0  0  0  0  0  0  0  0  0  0  0
   11.3940   -0.2000    0.0000 O   0  0  0  0  0  0  0  0  0  0  0  0
   11.3978    1.9756    0.0000 O   0  0  0  0  0  0  0  0  0  0  0  0
    3.2237    0.0776    0.0000 O   0  0  0  0  0  0  0  0  0  0  0  0
   10.0003    3.3934    0.0000 O   0  0  0  0  0  0  0  0  0  0  0  0
    9.3238   -0.8687    0.0000 N   0  0  0  0  0  0  0  0  0  0  0  0
    5.7795   -0.6734    0.0000 N   0  0  0  0  0  0  0  0  0  0  0  0
    2.5749    1.6837    0.0000 N   0  0  0  0  0  0  0  0  0  0  0  0
    4.8659   -1.0802    0.0000 N   0  0  0  0  0  0  0  0  0  0  0  0
    7.5115   -0.6734    0.0000 N   0  0  0  0  0  0  0  0  0  0  0  0
    9.3238   -2.4782    0.0000 N   0  0  0  0  0  0  0  0  0  0  0  0
    6.6455   -2.1734    0.0000 N   0  0  0  0  0  0  0  0  0  0  0  0
    7.5115   -3.6734    0.0000 N   0  0  0  0  0  0  0  0  0  0  0  0
    4.2900    1.4426    0.0000 C   0  0  0  0  0  0  0  0  0  0  0  0
    5.2036    1.8493    0.0000 C   0  0  0  0  0  0  0  0  0  0  0  0
    3.6209    2.1857    0.0000 C   0  0  0  0  0  0  0  0  0  0  0  0
    5.0991    2.8438    0.0000 C   0  0  0  0  0  0  0  0  0  0  0  0
    4.1209    3.0517    0.0000 C   0  0  0  0  0  0  0  0  0  0  0  0
    4.6968    0.5290    0.0000 C   0  0  0  0  0  0  0  0  0  0  0  0
   10.5860    0.3892    0.0000 C   0  0  2  0  0  0  0  0  0  0  0  0
    9.6344    0.0818    0.0000 C   0  0  1  0  0  0  0  0  0  0  0  0
   10.5877    1.3892    0.0000 C   0  0  1  0  0  0  0  0  0  0  0  0
    9.6372    1.6999    0.0000 C   0  0  1  0  0  0  0  0  0  0  0  0
    3.3629    1.0680    0.0000 C   0  0  0  0  0  0  0  0  0  0  0  0
    5.6749    0.3211    0.0000 C   0  0  0  0  0  0  0  0  0  0  0  0
    4.1968   -0.3370    0.0000 C   0  0  0  0  0  0  0  0  0  0  0  0
    9.3298    2.6514    0.0000 C   0  0  0  0  0  0  0  0  0  0  0  0
    8.3775   -1.1734    0.0000 C   0  0  0  0  0  0  0  0  0  0  0  0
    9.9074   -1.6734    0.0000 C   0  0  0  0  0  0  0  0  0  0  0  0
    8.3775   -2.1734    0.0000 C   0  0  0  0  0  0  0  0  0  0  0  0
    6.6455   -1.1734    0.0000 C   0  0  0  0  0  0  0  0  0  0  0  0
    7.5115   -2.6734    0.0000 C   0  0  0  0  0  0  0  0  0  0  0  0
    3.1193    2.5501    0.0000 H   0  0  0  0  0  0  0  0  0  0  0  0
    3.2061    1.7250    0.0000 H   0  0  0  0  0  0  0  0  0  0  0  0
    5.3952    1.2596    0.0000 H   0  0  0  0  0  0  0  0  0  0  0  0
    5.8101    1.9782    0.0000 H   0  0  0  0  0  0  0  0  0  0  0  0
    5.7191    2.8438    0.0000 H   0  0  0  0  0  0  0  0  0  0  0  0
    5.1639    3.4604    0.0000 H   0  0  0  0  0  0  0  0  0  0  0  0
    4.3125    3.6414    0.0000 H   0  0  0  0  0  0  0  0  0  0  0  0
    3.5545    3.3039    0.0000 H   0  0  0  0  0  0  0  0  0  0  0  0
   10.4880   -0.2230    0.0000 H   0  0  0  0  0  0  0  0  0  0  0  0
   10.0721   -0.3573    0.0000 H   0  0  0  0  0  0  0  0  0  0  0  0
   11.1397    1.1068    0.0000 H   0  0  0  0  0  0  0  0  0  0  0  0
    9.0250    1.7979    0.0000 H   0  0  0  0  0  0  0  0  0  0  0  0
    6.1357    0.7360    0.0000 H   0  0  0  0  0  0  0  0  0  0  0  0
    3.5802   -0.4018    0.0000 H   0  0  0  0  0  0  0  0  0  0  0  0
    8.9490    3.1407    0.0000 H   0  0  0  0  0  0  0  0  0  0  0  0
    8.7819    2.3613    0.0000 H   0  0  0  0  0  0  0  0  0  0  0  0
    2.0000    1.4514    0.0000 H   0  0  0  0  0  0  0  0  0  0  0  0
    2.6611    2.2976    0.0000 H   0  0  0  0  0  0  0  0  0  0  0  0
   11.9608    0.0512    0.0000 H   0  0  0  0  0  0  0  0  0  0  0  0
   11.9637    1.7224    0.0000 H   0  0  0  0  0  0  0  0  0  0  0  0
   10.5274   -1.6734    0.0000 H   0  0  0  0  0  0  0  0  0  0  0  0
    9.8097    3.9834    0.0000 H   0  0  0  0  0  0  0  0  0  0  0  0
    6.9746   -3.9834    0.0000 H   0  0  0  0  0  0  0  0  0  0  0  0
    8.0485   -3.9834    0.0000 H   0  0  0  0  0  0  0  0  0  0  0  0
  1 21  1  0  0  0  0
  1 23  1  0  0  0  0
 20  2  1  6  0  0  0
  2 51  1  0  0  0  0
 22  3  1  1  0  0  0
  3 52  1  0  0  0  0
  4 24  2  0  0  0  0
  5 27  1  0  0  0  0
  5 54  1  0  0  0  0
 21  6  1  6  0  0  0
  6 28  1  0  0  0  0
  6 29  1  0  0  0  0
  7  9  1  0  0  0  0
  7 25  1  0  0  0  0
  7 31  1  0  0  0  0
  8 24  1  0  0  0  0
  8 49  1  0  0  0  0
  8 50  1  0  0  0  0
  9 26  2  0  0  0  0
 10 28  2  0  0  0  0
 10 31  1  0  0  0  0
 11 29  2  0  0  0  0
 11 30  1  0  0  0  0
 12 31  2  0  0  0  0
 12 32  1  0  0  0  0
 13 32  1  0  0  0  0
 13 55  1  0  0  0  0
 13 56  1  0  0  0  0
 14 15  1  0  0  0  0
 14 16  1  0  0  0  0
 14 19  1  0  0  0  0
 14 24  1  0  0  0  0
 15 17  1  0  0  0  0
 15 35  1  0  0  0  0
 15 36  1  0  0  0  0
 16 18  1  0  0  0  0
 16 33  1  0  0  0  0
 16 34  1  0  0  0  0
 17 18  1  0  0  0  0
 17 37  1  0  0  0  0
 17 38  1  0  0  0  0
 18 39  1  0  0  0  0
 18 40  1  0  0  0  0
 19 25  2  0  0  0  0
 19 26  1  0  0  0  0
 20 21  1  0  0  0  0
 20 22  1  0  0  0  0
 20 41  1  0  0  0  0
 21 42  1  0  0  0  0
 22 23  1  0  0  0  0
 22 43  1  0  0  0  0
 23 27  1  6  0  0  0
 23 44  1  0  0  0  0
 25 45  1  0  0  0  0
 26 46  1  0  0  0  0
 27 47  1  0  0  0  0
 27 48  1  0  0  0  0
 28 30  1  0  0  0  0
 29 53  1  0  0  0  0
 30 32  2  0  0  0  0
M  END
> <PUBCHEM_COMPOUND_CID>
68427377

> <PUBCHEM_COMPOUND_CANONICALIZED>
1

> <PUBCHEM_CACTVS_COMPLEXITY>
711

> <PUBCHEM_CACTVS_HBOND_ACCEPTOR>
10

> <PUBCHEM_CACTVS_HBOND_DONOR>
5

> <PUBCHEM_CACTVS_ROTATABLE_BOND>
5

> <PUBCHEM_CACTVS_SUBSKEYS>
AAADceB7+AAAAAAAAAAAAAAAAAAAAeLEiAAsAAAAAAAAAFgB/gAAHgAYCAAADhzhnwYt8L9MFgCqAxd3dACQhC0xkKAVUCEoVBiDeJJA3UGexAgPiALTQCH8uEIPgAAAAAAAAAAAAAAAAAAAAAAAAAAAAA==

> <PUBCHEM_IUPAC_OPENEYE_NAME>
1-[1-[6-amino-9-[(2R,3S,4S,5R)-3,4-dihydroxy-5-(hydroxymethyl)tetrahydrofuran-2-yl]purin-2-yl]pyrazol-4-yl]cyclopentanecarboxamide

> <PUBCHEM_IUPAC_CAS_NAME>
1-[1-[6-amino-9-[(2R,3S,4S,5R)-3,4-dihydroxy-5-(hydroxymethyl)-2-oxolanyl]-2-purinyl]-4-pyrazolyl]-1-cyclopentanecarboxamide

> <PUBCHEM_IUPAC_NAME>
1-[1-[6-amino-9-[(2R,3S,4S,5R)-3,4-dihydroxy-5-(hydroxymethyl)oxolan-2-yl]purin-2-yl]pyrazol-4-yl]cyclopentane-1-carboxamide

> <PUBCHEM_IUPAC_SYSTEMATIC_NAME>
1-[1-[6-azanyl-9-[(2R,3S,4S,5R)-5-(hydroxymethyl)-3,4-bis(oxidanyl)oxolan-2-yl]purin-2-yl]pyrazol-4-yl]cyclopentane-1-carboxamide

> <PUBCHEM_IUPAC_TRADITIONAL_NAME>
1-[1-[6-amino-9-[(2R,3S,4S,5R)-3,4-dihydroxy-5-methylol-tetrahydrofuran-2-yl]purin-2-yl]pyrazol-4-yl]cyclopentanecarboxamide

> <PUBCHEM_IUPAC_INCHI>
InChI=1S/C19H24N8O5/c20-14-11-15(26(8-22-11)16-13(30)12(29)10(7-28)32-16)25-18(24-14)27-6-9(5-23-27)19(17(21)31)3-1-2-4-19/h5-6,8,10,12-13,16,28-30H,1-4,7H2,(H2,21,31)(H2,20,24,25)/t10-,12-,13+,16-/m1/s1

> <PUBCHEM_IUPAC_INCHIKEY>
BALHWTPGPVYMII-YGSHXTJESA-N

> <PUBCHEM_XLOGP3>
-0.5

> <PUBCHEM_EXACT_MASS>
444.186966

> <PUBCHEM_MOLECULAR_FORMULA>
C19H24N8O5

> <PUBCHEM_MOLECULAR_WEIGHT>
444.44446

> <PUBCHEM_OPENEYE_CAN_SMILES>
C1CCC(C1)(C2=CN(N=C2)C3=NC4=C(C(=N3)N)N=CN4C5C(C(C(O5)CO)O)O)C(=O)N

> <PUBCHEM_OPENEYE_ISO_SMILES>
C1CCC(C1)(C2=CN(N=C2)C3=NC4=C(C(=N3)N)N=CN4[C@H]5[C@H]([C@@H]([C@H](O5)CO)O)O)C(=O)N

> <PUBCHEM_CACTVS_TPSA>
200

> <PUBCHEM_MONOISOTOPIC_WEIGHT>
444.186966

> <PUBCHEM_TOTAL_CHARGE>
0

> <PUBCHEM_HEAVY_ATOM_COUNT>
32

> <PUBCHEM_ATOM_DEF_STEREO_COUNT>
4

> <PUBCHEM_ATOM_UDEF_STEREO_COUNT>
0

> <PUBCHEM_BOND_DEF_STEREO_COUNT>
0

> <PUBCHEM_BOND_UDEF_STEREO_COUNT>
0

> <PUBCHEM_ISOTOPIC_ATOM_COUNT>
0

> <PUBCHEM_COMPONENT_COUNT>
1

> <PUBCHEM_CACTVS_TAUTO_COUNT>
6

> <PUBCHEM_COORDINATE_TYPE>
1
5
255

> <PUBCHEM_BONDANNOTATIONS>
10  28  8
10  31  8
11  29  8
11  30  8
12  31  8
12  32  8
19  25  8
19  26  8
20  2  6
23  27  6
28  30  8
22  3  5
30  32  8
21  6  6
6  28  8
6  29  8
7  25  8
7  9  8
9  26  8

$$$$
68428498
  -OEChem-05231305452D

 38 38  0     0  0  0  0  0  0999 V2000
    4.5981   -1.2500    0.0000 N   0  0  0  0  0  0  0  0  0  0  0  0
    4.5981   -0.2500    0.0000 C   0  0  0  0  0  0  0  0  0  0  0  0
    3.7320    0.2500    0.0000 C   0  0  0  0  0  0  0  0  0  0  0  0
    5.4641    0.2500    0.0000 C   0  0  0  0  0  0  0  0  0  0  0  0
    2.8660   -0.2500    0.0000 C   0  0  0  0  0  0  0  0  0  0  0  0
    5.4641    1.2500    0.0000 C   0  0  0  0  0  0  0  0  0  0  0  0
    2.0000    0.2500    0.0000 C   0  0  0  0  0  0  0  0  0  0  0  0
    4.5981    1.7500    0.0000 C   0  0  0  0  0  0  0  0  0  0  0  0
    2.0000    1.2500    0.0000 C   0  0  0  0  0  0  0  0  0  0  0  0
    3.7320    1.2500    0.0000 C   0  0  0  0  0  0  0  0  0  0  0  0
    2.8660    1.7500    0.0000 C   0  0  0  0  0  0  0  0  0  0  0  0
    5.4641   -1.7500    0.0000 C   0  0  0  0  0  0  0  0  0  0  0  0
    3.7320   -1.7500    0.0000 C   0  0  0  0  0  0  0  0  0  0  0  0
    5.1350   -0.5600    0.0000 H   0  0  0  0  0  0  0  0  0  0  0  0
    4.1306    0.7249    0.0000 H   0  0  0  0  0  0  0  0  0  0  0  0
    3.3335    0.7249    0.0000 H   0  0  0  0  0  0  0  0  0  0  0  0
    5.6762   -0.3326    0.0000 H   0  0  0  0  0  0  0  0  0  0  0  0
    6.0747    0.3577    0.0000 H   0  0  0  0  0  0  0  0  0  0  0  0
    2.4675   -0.7249    0.0000 H   0  0  0  0  0  0  0  0  0  0  0  0
    6.0747    1.1423    0.0000 H   0  0  0  0  0  0  0  0  0  0  0  0
    5.6762    1.8326    0.0000 H   0  0  0  0  0  0  0  0  0  0  0  0
    3.2646   -0.7249    0.0000 H   0  0  0  0  0  0  0  0  0  0  0  0
    4.9966    2.2250    0.0000 H   0  0  0  0  0  0  0  0  0  0  0  0
    4.1996    2.2250    0.0000 H   0  0  0  0  0  0  0  0  0  0  0  0
    1.3894    0.3577    0.0000 H   0  0  0  0  0  0  0  0  0  0  0  0
    1.7880   -0.3326    0.0000 H   0  0  0  0  0  0  0  0  0  0  0  0
    3.3335    0.7751    0.0000 H   0  0  0  0  0  0  0  0  0  0  0  0
    4.1306    0.7751    0.0000 H   0  0  0  0  0  0  0  0  0  0  0  0
    1.7880    1.8326    0.0000 H   0  0  0  0  0  0  0  0  0  0  0  0
    1.3894    1.1423    0.0000 H   0  0  0  0  0  0  0  0  0  0  0  0
    3.2646    2.2250    0.0000 H   0  0  0  0  0  0  0  0  0  0  0  0
    2.4675    2.2250    0.0000 H   0  0  0  0  0  0  0  0  0  0  0  0
    5.1541   -2.2869    0.0000 H   0  0  0  0  0  0  0  0  0  0  0  0
    6.0010   -2.0600    0.0000 H   0  0  0  0  0  0  0  0  0  0  0  0
    5.7741   -1.2131    0.0000 H   0  0  0  0  0  0  0  0  0  0  0  0
    3.4220   -1.2131    0.0000 H   0  0  0  0  0  0  0  0  0  0  0  0
    3.1951   -2.0600    0.0000 H   0  0  0  0  0  0  0  0  0  0  0  0
    4.0420   -2.2869    0.0000 H   0  0  0  0  0  0  0  0  0  0  0  0
  1  2  1  0  0  0  0
  1 12  1  0  0  0  0
  1 13  1  0  0  0  0
  2  3  1  0  0  0  0
  2  4  1  0  0  0  0
  2 14  1  0  0  0  0
  3  5  1  0  0  0  0
  3 15  1  0  0  0  0
  3 16  1  0  0  0  0
  4  6  1  0  0  0  0
  4 17  1  0  0  0  0
  4 18  1  0  0  0  0
  5  7  1  0  0  0  0
  5 19  1  0  0  0  0
  5 22  1  0  0  0  0
  6  8  1  0  0  0  0
  6 20  1  0  0  0  0
  6 21  1  0  0  0  0
  7  9  1  0  0  0  0
  7 25  1  0  0  0  0
  7 26  1  0  0  0  0
  8 10  1  0  0  0  0
  8 23  1  0  0  0  0
  8 24  1  0  0  0  0
  9 11  1  0  0  0  0
  9 29  1  0  0  0  0
  9 30  1  0  0  0  0
 10 11  1  0  0  0  0
 10 27  1  0  0  0  0
 10 28  1  0  0  0  0
 11 31  1  0  0  0  0
 11 32  1  0  0  0  0
 12 33  1  0  0  0  0
 12 34  1  0  0  0  0
 12 35  1  0  0  0  0
 13 36  1  0  0  0  0
 13 37  1  0  0  0  0
 13 38  1  0  0  0  0
M  END
> <PUBCHEM_COMPOUND_CID>
68428498

> <PUBCHEM_COMPOUND_CANONICALIZED>
1

> <PUBCHEM_CACTVS_COMPLEXITY>
110

> <PUBCHEM_CACTVS_HBOND_ACCEPTOR>
1

> <PUBCHEM_CACTVS_HBOND_DONOR>
0

> <PUBCHEM_CACTVS_ROTATABLE_BOND>
1

> <PUBCHEM_CACTVS_SUBSKEYS>
AAADceByAAAAAAAAAAAAAAAAAAAAAAAAAAAAAAAAAAAAAADAAAAAHAAAAAAACCjBAAQCAAMAAAAAAAAAAAAAAAAAAAAAAAAIAAAAAAIAgAAEAAAAAAAAAAEQgIAAAAAAAAAAAAAAAAAAAAAAAAAAAAAAAA==

> <PUBCHEM_IUPAC_OPENEYE_NAME>
N,N-dimethylcyclodecanamine

> <PUBCHEM_IUPAC_CAS_NAME>
N,N-dimethylcyclodecanamine

> <PUBCHEM_IUPAC_NAME>
N,N-dimethylcyclodecanamine

> <PUBCHEM_IUPAC_SYSTEMATIC_NAME>
N,N-dimethylcyclodecanamine

> <PUBCHEM_IUPAC_TRADITIONAL_NAME>
cyclodecyl(dimethyl)amine

> <PUBCHEM_IUPAC_INCHI>
InChI=1S/C12H25N/c1-13(2)12-10-8-6-4-3-5-7-9-11-12/h12H,3-11H2,1-2H3

> <PUBCHEM_IUPAC_INCHIKEY>
RDHSKMYRMACAJO-UHFFFAOYSA-N

> <PUBCHEM_XLOGP3>
3.4

> <PUBCHEM_EXACT_MASS>
183.1987

> <PUBCHEM_MOLECULAR_FORMULA>
C12H25N

> <PUBCHEM_MOLECULAR_WEIGHT>
183.3336

> <PUBCHEM_OPENEYE_CAN_SMILES>
CN(C)C1CCCCCCCCC1

> <PUBCHEM_OPENEYE_ISO_SMILES>
CN(C)C1CCCCCCCCC1

> <PUBCHEM_CACTVS_TPSA>
3.2

> <PUBCHEM_MONOISOTOPIC_WEIGHT>
183.1987

> <PUBCHEM_TOTAL_CHARGE>
0

> <PUBCHEM_HEAVY_ATOM_COUNT>
13

> <PUBCHEM_ATOM_DEF_STEREO_COUNT>
0

> <PUBCHEM_ATOM_UDEF_STEREO_COUNT>
0

> <PUBCHEM_BOND_DEF_STEREO_COUNT>
0

> <PUBCHEM_BOND_UDEF_STEREO_COUNT>
0

> <PUBCHEM_ISOTOPIC_ATOM_COUNT>
0

> <PUBCHEM_COMPONENT_COUNT>
1

> <PUBCHEM_CACTVS_TAUTO_COUNT>
1

> <PUBCHEM_COORDINATE_TYPE>
1
5
255

$$$$
68430876
  -OEChem-05231305452D

 31 31  0     0  0  0  0  0  0999 V2000
    2.8660   -0.6900    0.0000 N   0  0  0  0  0  0  0  0  0  0  0  0
    4.5981    2.3100    0.0000 C   0  0  0  0  0  0  0  0  0  0  0  0
    4.5981    1.3100    0.0000 C   0  0  0  0  0  0  0  0  0  0  0  0
    4.5981    3.3100    0.0000 C   0  0  0  0  0  0  0  0  0  0  0  0
    5.5981    2.3100    0.0000 C   0  0  0  0  0  0  0  0  0  0  0  0
    3.5981    2.3100    0.0000 C   0  0  0  0  0  0  0  0  0  0  0  0
    3.7320    0.8100    0.0000 C   0  0  0  0  0  0  0  0  0  0  0  0
    5.4641    0.8100    0.0000 C   0  0  0  0  0  0  0  0  0  0  0  0
    3.7320   -0.1900    0.0000 C   0  0  0  0  0  0  0  0  0  0  0  0
    5.4641   -0.1900    0.0000 C   0  0  0  0  0  0  0  0  0  0  0  0
    4.5981   -0.6900    0.0000 C   0  0  0  0  0  0  0  0  0  0  0  0
    2.0000   -0.1900    0.0000 C   0  0  0  0  0  0  0  0  0  0  0  0
    2.8660   -1.6900    0.0000 C   0  0  0  0  0  0  0  0  0  0  0  0
    2.8660   -2.6900    0.0000 C   0  0  0  0  0  0  0  0  0  0  0  0
    3.5981    2.9300    0.0000 H   0  0  0  0  0  0  0  0  0  0  0  0
    2.9781    2.3100    0.0000 H   0  0  0  0  0  0  0  0  0  0  0  0
    3.5981    1.6900    0.0000 H   0  0  0  0  0  0  0  0  0  0  0  0
    5.5981    1.6900    0.0000 H   0  0  0  0  0  0  0  0  0  0  0  0
    6.2181    2.3100    0.0000 H   0  0  0  0  0  0  0  0  0  0  0  0
    5.5981    2.9300    0.0000 H   0  0  0  0  0  0  0  0  0  0  0  0
    5.2181    3.3100    0.0000 H   0  0  0  0  0  0  0  0  0  0  0  0
    4.5981    3.9300    0.0000 H   0  0  0  0  0  0  0  0  0  0  0  0
    3.9781    3.3100    0.0000 H   0  0  0  0  0  0  0  0  0  0  0  0
    3.1951    1.1200    0.0000 H   0  0  0  0  0  0  0  0  0  0  0  0
    6.0010    1.1200    0.0000 H   0  0  0  0  0  0  0  0  0  0  0  0
    6.0010   -0.5000    0.0000 H   0  0  0  0  0  0  0  0  0  0  0  0
    4.5981   -1.3100    0.0000 H   0  0  0  0  0  0  0  0  0  0  0  0
    2.3100    0.3469    0.0000 H   0  0  0  0  0  0  0  0  0  0  0  0
    1.4631    0.1200    0.0000 H   0  0  0  0  0  0  0  0  0  0  0  0
    1.6900   -0.7269    0.0000 H   0  0  0  0  0  0  0  0  0  0  0  0
    2.8660   -3.3100    0.0000 H   0  0  0  0  0  0  0  0  0  0  0  0
  1  9  1  0  0  0  0
  1 12  1  0  0  0  0
  1 13  1  0  0  0  0
  2  3  1  0  0  0  0
  2  4  1  0  0  0  0
  2  5  1  0  0  0  0
  2  6  1  0  0  0  0
  3  7  2  0  0  0  0
  3  8  1  0  0  0  0
  4 21  1  0  0  0  0
  4 22  1  0  0  0  0
  4 23  1  0  0  0  0
  5 18  1  0  0  0  0
  5 19  1  0  0  0  0
  5 20  1  0  0  0  0
  6 15  1  0  0  0  0
  6 16  1  0  0  0  0
  6 17  1  0  0  0  0
  7  9  1  0  0  0  0
  7 24  1  0  0  0  0
  8 10  2  0  0  0  0
  8 25  1  0  0  0  0
  9 11  2  0  0  0  0
 10 11  1  0  0  0  0
 10 26  1  0  0  0  0
 11 27  1  0  0  0  0
 12 28  1  0  0  0  0
 12 29  1  0  0  0  0
 12 30  1  0  0  0  0
 13 14  3  0  0  0  0
 14 31  1  0  0  0  0
M  END
> <PUBCHEM_COMPOUND_CID>
68430876

> <PUBCHEM_COMPOUND_CANONICALIZED>
1

> <PUBCHEM_CACTVS_COMPLEXITY>
227

> <PUBCHEM_CACTVS_HBOND_ACCEPTOR>
1

> <PUBCHEM_CACTVS_HBOND_DONOR>
0

> <PUBCHEM_CACTVS_ROTATABLE_BOND>
3

> <PUBCHEM_CACTVS_SUBSKEYS>
AAADceByAAAAAAAAAAAAAAAAAAAAAAAAAAAwAAAAAAAAAAABAAAAHAAAAAAADgiBGAQywIMAAADACiRCQACCAAAhAgAIiAAIZIgIICLAkZGEIAhggABIyAcQgMAPgAAAQAAAAAAAAACAAAAAAAAAAAAAAA==

> <PUBCHEM_IUPAC_OPENEYE_NAME>
3-tert-butyl-N-ethynyl-N-methyl-aniline

> <PUBCHEM_IUPAC_CAS_NAME>
3-tert-butyl-N-ethynyl-N-methylaniline

> <PUBCHEM_IUPAC_NAME>
3-tert-butyl-N-ethynyl-N-methylaniline

> <PUBCHEM_IUPAC_SYSTEMATIC_NAME>
3-tert-butyl-N-ethynyl-N-methyl-aniline

> <PUBCHEM_IUPAC_TRADITIONAL_NAME>
(3-tert-butylphenyl)-ethynyl-methyl-amine

> <PUBCHEM_IUPAC_INCHI>
InChI=1S/C13H17N/c1-6-14(5)12-9-7-8-11(10-12)13(2,3)4/h1,7-10H,2-5H3

> <PUBCHEM_IUPAC_INCHIKEY>
WGAATSOPFCHOOG-UHFFFAOYSA-N

> <PUBCHEM_XLOGP3>
4.5

> <PUBCHEM_EXACT_MASS>
187.1361

> <PUBCHEM_MOLECULAR_FORMULA>
C13H17N

> <PUBCHEM_MOLECULAR_WEIGHT>
187.28078

> <PUBCHEM_OPENEYE_CAN_SMILES>
CC(C)(C)C1=CC(=CC=C1)N(C)C#C

> <PUBCHEM_OPENEYE_ISO_SMILES>
CC(C)(C)C1=CC(=CC=C1)N(C)C#C

> <PUBCHEM_CACTVS_TPSA>
3.2

> <PUBCHEM_MONOISOTOPIC_WEIGHT>
187.1361

> <PUBCHEM_TOTAL_CHARGE>
0

> <PUBCHEM_HEAVY_ATOM_COUNT>
14

> <PUBCHEM_ATOM_DEF_STEREO_COUNT>
0

> <PUBCHEM_ATOM_UDEF_STEREO_COUNT>
0

> <PUBCHEM_BOND_DEF_STEREO_COUNT>
0

> <PUBCHEM_BOND_UDEF_STEREO_COUNT>
0

> <PUBCHEM_ISOTOPIC_ATOM_COUNT>
0

> <PUBCHEM_COMPONENT_COUNT>
1

> <PUBCHEM_CACTVS_TAUTO_COUNT>
1

> <PUBCHEM_COORDINATE_TYPE>
1
5
255

> <PUBCHEM_BONDANNOTATIONS>
10  11  8
3  7  8
3  8  8
7  9  8
8  10  8
9  11  8

$$$$
68433541
  -OEChem-05231305452D

 27 28  0     0  0  0  0  0  0999 V2000
    2.5369   -3.1123    0.0000 O   0  0  0  0  0  0  0  0  0  0  0  0
    3.4030    1.3877    0.0000 C   0  0  0  0  0  0  0  0  0  0  0  0
    4.2690    1.8877    0.0000 C   0  0  0  0  0  0  0  0  0  0  0  0
    3.4030    0.3877    0.0000 C   0  0  0  0  0  0  0  0  0  0  0  0
    4.2690    2.8877    0.0000 C   0  0  0  0  0  0  0  0  0  0  0  0
    2.5369    1.8877    0.0000 C   0  0  0  0  0  0  0  0  0  0  0  0
    5.1629    1.3530    0.0000 C   0  0  0  0  0  0  0  0  0  0  0  0
    3.4030    3.3877    0.0000 C   0  0  0  0  0  0  0  0  0  0  0  0
    2.5369   -0.1123    0.0000 C   0  0  0  0  0  0  0  0  0  0  0  0
    2.5369    2.8877    0.0000 C   0  0  0  0  0  0  0  0  0  0  0  0
    5.1629    3.4223    0.0000 C   0  0  0  0  0  0  0  0  0  0  0  0
    6.0690    1.8668    0.0000 C   0  0  0  0  0  0  0  0  0  0  0  0
    6.0690    2.9085    0.0000 C   0  0  0  0  0  0  0  0  0  0  0  0
    2.5369   -1.1123    0.0000 C   0  0  0  0  0  0  0  0  0  0  0  0
    2.5369   -2.1123    0.0000 C   0  0  0  0  0  0  0  0  0  0  0  0
    3.6150   -0.1949    0.0000 H   0  0  0  0  0  0  0  0  0  0  0  0
    4.0135    0.4953    0.0000 H   0  0  0  0  0  0  0  0  0  0  0  0
    2.0000    1.5777    0.0000 H   0  0  0  0  0  0  0  0  0  0  0  0
    5.1558    0.7330    0.0000 H   0  0  0  0  0  0  0  0  0  0  0  0
    3.4030    4.0077    0.0000 H   0  0  0  0  0  0  0  0  0  0  0  0
    2.3249    0.4703    0.0000 H   0  0  0  0  0  0  0  0  0  0  0  0
    1.9264   -0.2200    0.0000 H   0  0  0  0  0  0  0  0  0  0  0  0
    2.0000    3.1977    0.0000 H   0  0  0  0  0  0  0  0  0  0  0  0
    5.1558    4.0423    0.0000 H   0  0  0  0  0  0  0  0  0  0  0  0
    6.6047    1.5548    0.0000 H   0  0  0  0  0  0  0  0  0  0  0  0
    6.6047    3.2205    0.0000 H   0  0  0  0  0  0  0  0  0  0  0  0
    2.0000   -3.4223    0.0000 H   0  0  0  0  0  0  0  0  0  0  0  0
  1 15  1  0  0  0  0
  1 27  1  0  0  0  0
  2  3  1  0  0  0  0
  2  4  1  0  0  0  0
  2  6  2  0  0  0  0
  3  5  1  0  0  0  0
  3  7  2  0  0  0  0
  4  9  1  0  0  0  0
  4 16  1  0  0  0  0
  4 17  1  0  0  0  0
  5  8  1  0  0  0  0
  5 11  2  0  0  0  0
  6 10  1  0  0  0  0
  6 18  1  0  0  0  0
  7 12  1  0  0  0  0
  7 19  1  0  0  0  0
  8 10  2  0  0  0  0
  8 20  1  0  0  0  0
  9 14  1  0  0  0  0
  9 21  1  0  0  0  0
  9 22  1  0  0  0  0
 10 23  1  0  0  0  0
 11 13  1  0  0  0  0
 11 24  1  0  0  0  0
 12 13  2  0  0  0  0
 12 25  1  0  0  0  0
 13 26  1  0  0  0  0
 14 15  3  0  0  0  0
M  END
> <PUBCHEM_COMPOUND_CID>
68433541

> <PUBCHEM_COMPOUND_CANONICALIZED>
1

> <PUBCHEM_CACTVS_COMPLEXITY>
257

> <PUBCHEM_CACTVS_HBOND_ACCEPTOR>
1

> <PUBCHEM_CACTVS_HBOND_DONOR>
1

> <PUBCHEM_CACTVS_ROTATABLE_BOND>
2

> <PUBCHEM_CACTVS_SUBSKEYS>
AAADccBwIAAAAAAAAAAAAAAAAAAAAAAAAAAwYAAAAAAAAADBUAAAGgAACAAADACAmAAwAMAAAgDAEiBCAAgCAAAgAAAIiAAAAIgIICKAERCAIAAggAAIiAcAgMAOgAACAAAQAAAAAAQAACAAAAAAAAAAAA==

> <PUBCHEM_IUPAC_OPENEYE_NAME>
4-(1-naphthyl)but-1-yn-1-ol

> <PUBCHEM_IUPAC_CAS_NAME>
4-(1-naphthalenyl)-1-butyn-1-ol

> <PUBCHEM_IUPAC_NAME>
4-naphthalen-1-ylbut-1-yn-1-ol

> <PUBCHEM_IUPAC_SYSTEMATIC_NAME>
4-naphthalen-1-ylbut-1-yn-1-ol

> <PUBCHEM_IUPAC_TRADITIONAL_NAME>
4-(1-naphthyl)but-1-yn-1-ol

> <PUBCHEM_IUPAC_INCHI>
InChI=1S/C14H12O/c15-11-4-3-7-13-9-5-8-12-6-1-2-10-14(12)13/h1-2,5-6,8-10,15H,3,7H2

> <PUBCHEM_IUPAC_INCHIKEY>
YDWAGERHQRCPND-UHFFFAOYSA-N

> <PUBCHEM_XLOGP3>
4.4

> <PUBCHEM_EXACT_MASS>
196.088815

> <PUBCHEM_MOLECULAR_FORMULA>
C14H12O

> <PUBCHEM_MOLECULAR_WEIGHT>
196.24448

> <PUBCHEM_OPENEYE_CAN_SMILES>
C1=CC=C2C(=C1)C=CC=C2CCC#CO

> <PUBCHEM_OPENEYE_ISO_SMILES>
C1=CC=C2C(=C1)C=CC=C2CCC#CO

> <PUBCHEM_CACTVS_TPSA>
20.2

> <PUBCHEM_MONOISOTOPIC_WEIGHT>
196.088815

> <PUBCHEM_TOTAL_CHARGE>
0

> <PUBCHEM_HEAVY_ATOM_COUNT>
15

> <PUBCHEM_ATOM_DEF_STEREO_COUNT>
0

> <PUBCHEM_ATOM_UDEF_STEREO_COUNT>
0

> <PUBCHEM_BOND_DEF_STEREO_COUNT>
0

> <PUBCHEM_BOND_UDEF_STEREO_COUNT>
0

> <PUBCHEM_ISOTOPIC_ATOM_COUNT>
0

> <PUBCHEM_COMPONENT_COUNT>
1

> <PUBCHEM_CACTVS_TAUTO_COUNT>
2

> <PUBCHEM_COORDINATE_TYPE>
1
5
255

> <PUBCHEM_BONDANNOTATIONS>
11  13  8
12  13  8
2  3  8
2  6  8
3  5  8
3  7  8
5  11  8
5  8  8
6  10  8
7  12  8
8  10  8

$$$$
68434873
  -OEChem-05231305452D

 41 43  0     0  0  0  0  0  0999 V2000
    8.4142    0.6341    0.0000 O   0  0  0  0  0  0  0  0  0  0  0  0
    4.9222    0.5995    0.0000 O   0  0  0  0  0  0  0  0  0  0  0  0
    6.6542   -2.4005    0.0000 O   0  0  0  0  0  0  0  0  0  0  0  0
    8.4026   -2.4351    0.0000 O   0  0  0  0  0  0  0  0  0  0  0  0
    2.8241   -0.5538    0.0000 O   0  0  0  0  0  0  0  0  0  0  0  0
    5.0507    2.1000    0.0000 O   0  0  0  0  0  0  0  0  0  0  0  0
    2.6106    1.8865    0.0000 O   0  0  0  0  0  0  0  0  0  0  0  0
    4.5298   -0.8545    0.0000 O   0  0  0  0  0  0  0  0  0  0  0  0
    3.3450    2.4007    0.0000 O   0  0  0  0  0  0  0  0  0  0  0  0
    2.3098    0.1807    0.0000 O   0  0  0  0  0  0  0  0  0  0  0  0
    7.5203   -0.9005    0.0000 C   0  0  0  0  0  0  0  0  0  0  0  0
    7.5203    0.0995    0.0000 C   0  0  0  0  0  0  0  0  0  0  0  0
    5.7882    0.0995    0.0000 C   0  0  0  0  0  0  0  0  0  0  0  0
    6.6542    0.5995    0.0000 C   0  0  0  0  0  0  0  0  0  0  0  0
    6.6542   -1.4005    0.0000 C   0  0  0  0  0  0  0  0  0  0  0  0
    3.9374    0.7732    0.0000 C   0  0  0  0  0  0  0  0  0  0  0  0
    9.3203    0.1203    0.0000 C   0  0  0  0  0  0  0  0  0  0  0  0
    5.7882   -0.9005    0.0000 C   0  0  0  0  0  0  0  0  0  0  0  0
    8.4142   -1.4352    0.0000 C   0  0  0  0  0  0  0  0  0  0  0  0
    9.3203   -0.9213    0.0000 C   0  0  0  0  0  0  0  0  0  0  0  0
   10.1844    0.6236    0.0000 C   0  0  0  0  0  0  0  0  0  0  0  0
    2.9526    0.9468    0.0000 C   0  0  0  0  0  0  0  0  0  0  0  0
    4.1110    1.7579    0.0000 C   0  0  0  0  0  0  0  0  0  0  0  0
    3.7638   -0.2117    0.0000 C   0  0  0  0  0  0  0  0  0  0  0  0
   11.0523    0.1270    0.0000 C   0  0  0  0  0  0  0  0  0  0  0  0
   10.1805    1.6236    0.0000 C   0  0  0  0  0  0  0  0  0  0  0  0
   11.9164    0.6303    0.0000 C   0  0  0  0  0  0  0  0  0  0  0  0
   11.0446    2.1270    0.0000 C   0  0  0  0  0  0  0  0  0  0  0  0
   11.9125    1.6303    0.0000 C   0  0  0  0  0  0  0  0  0  0  0  0
    6.6542    1.2195    0.0000 H   0  0  0  0  0  0  0  0  0  0  0  0
    5.2513   -1.2105    0.0000 H   0  0  0  0  0  0  0  0  0  0  0  0
    9.8560   -1.2334    0.0000 H   0  0  0  0  0  0  0  0  0  0  0  0
   11.0547   -0.4930    0.0000 H   0  0  0  0  0  0  0  0  0  0  0  0
    9.6424    1.9315    0.0000 H   0  0  0  0  0  0  0  0  0  0  0  0
    6.1173   -2.7105    0.0000 H   0  0  0  0  0  0  0  0  0  0  0  0
   12.4545    0.3224    0.0000 H   0  0  0  0  0  0  0  0  0  0  0  0
   11.0422    2.7469    0.0000 H   0  0  0  0  0  0  0  0  0  0  0  0
   12.4483    1.9424    0.0000 H   0  0  0  0  0  0  0  0  0  0  0  0
    2.0000    1.9942    0.0000 H   0  0  0  0  0  0  0  0  0  0  0  0
    5.1584    2.7105    0.0000 H   0  0  0  0  0  0  0  0  0  0  0  0
    2.7164   -1.1644    0.0000 H   0  0  0  0  0  0  0  0  0  0  0  0
  1 12  1  0  0  0  0
  1 17  1  0  0  0  0
  2 13  1  0  0  0  0
  2 16  1  0  0  0  0
  3 15  1  0  0  0  0
  3 35  1  0  0  0  0
  4 19  2  0  0  0  0
  5 24  1  0  0  0  0
  5 41  1  0  0  0  0
  6 23  1  0  0  0  0
  6 40  1  0  0  0  0
  7 22  1  0  0  0  0
  7 39  1  0  0  0  0
  8 24  2  0  0  0  0
  9 23  2  0  0  0  0
 10 22  2  0  0  0  0
 11 12  1  0  0  0  0
 11 15  2  0  0  0  0
 11 19  1  0  0  0  0
 12 14  2  0  0  0  0
 13 14  1  0  0  0  0
 13 18  2  0  0  0  0
 14 30  1  0  0  0  0
 15 18  1  0  0  0  0
 16 22  1  0  0  0  0
 16 23  1  0  0  0  0
 16 24  1  0  0  0  0
 17 20  2  0  0  0  0
 17 21  1  0  0  0  0
 18 31  1  0  0  0  0
 19 20  1  0  0  0  0
 20 32  1  0  0  0  0
 21 25  2  0  0  0  0
 21 26  1  0  0  0  0
 25 27  1  0  0  0  0
 25 33  1  0  0  0  0
 26 28  2  0  0  0  0
 26 34  1  0  0  0  0
 27 29  2  0  0  0  0
 27 36  1  0  0  0  0
 28 29  1  0  0  0  0
 28 37  1  0  0  0  0
 29 38  1  0  0  0  0
M  END
> <PUBCHEM_COMPOUND_CID>
68434873

> <PUBCHEM_COMPOUND_CANONICALIZED>
1

> <PUBCHEM_CACTVS_COMPLEXITY>
699

> <PUBCHEM_CACTVS_HBOND_ACCEPTOR>
10

> <PUBCHEM_CACTVS_HBOND_DONOR>
4

> <PUBCHEM_CACTVS_ROTATABLE_BOND>
6

> <PUBCHEM_CACTVS_SUBSKEYS>
AAADccB4PAAAAAAAAAAAAAAAAAAAAAAAAAAwYIAAAAAAAACBQAAAGgAACAAADESAmAAwDoAABgCIAqDSCAICCAAkIAAIiAFGCMgNJzaONR6CeWCl4BULuQeI7KzOIAAACAAIAABAAAAQABAAAAAAAAAAAA==

> <PUBCHEM_IUPAC_OPENEYE_NAME>
(5-hydroxy-4-oxo-2-phenyl-chromen-7-yl)oxymethanetricarboxylic acid

> <PUBCHEM_IUPAC_CAS_NAME>
(5-hydroxy-4-oxo-2-phenyl-1-benzopyran-7-yl)oxymethanetricarboxylic acid

> <PUBCHEM_IUPAC_NAME>
(5-hydroxy-4-oxo-2-phenylchromen-7-yl)oxymethanetricarboxylic acid

> <PUBCHEM_IUPAC_SYSTEMATIC_NAME>
(5-oxidanyl-4-oxidanylidene-2-phenyl-chromen-7-yl)oxymethanetricarboxylic acid

> <PUBCHEM_IUPAC_TRADITIONAL_NAME>
(5-hydroxy-4-keto-2-phenyl-chromen-7-yl)oxymethanetricarboxylic acid

> <PUBCHEM_IUPAC_INCHI>
InChI=1S/C19H12O10/c20-11-6-10(29-19(16(22)23,17(24)25)18(26)27)7-14-15(11)12(21)8-13(28-14)9-4-2-1-3-5-9/h1-8,20H,(H,22,23)(H,24,25)(H,26,27)

> <PUBCHEM_IUPAC_INCHIKEY>
OKDQJLAMAQVPCN-UHFFFAOYSA-N

> <PUBCHEM_XLOGP3>
1.4

> <PUBCHEM_EXACT_MASS>
400.043047

> <PUBCHEM_MOLECULAR_FORMULA>
C19H12O10

> <PUBCHEM_MOLECULAR_WEIGHT>
400.29258

> <PUBCHEM_OPENEYE_CAN_SMILES>
C1=CC=C(C=C1)C2=CC(=O)C3=C(C=C(C=C3O2)OC(C(=O)O)(C(=O)O)C(=O)O)O

> <PUBCHEM_OPENEYE_ISO_SMILES>
C1=CC=C(C=C1)C2=CC(=O)C3=C(C=C(C=C3O2)OC(C(=O)O)(C(=O)O)C(=O)O)O

> <PUBCHEM_CACTVS_TPSA>
168

> <PUBCHEM_MONOISOTOPIC_WEIGHT>
400.043047

> <PUBCHEM_TOTAL_CHARGE>
0

> <PUBCHEM_HEAVY_ATOM_COUNT>
29

> <PUBCHEM_ATOM_DEF_STEREO_COUNT>
0

> <PUBCHEM_ATOM_UDEF_STEREO_COUNT>
0

> <PUBCHEM_BOND_DEF_STEREO_COUNT>
0

> <PUBCHEM_BOND_UDEF_STEREO_COUNT>
0

> <PUBCHEM_ISOTOPIC_ATOM_COUNT>
0

> <PUBCHEM_COMPONENT_COUNT>
1

> <PUBCHEM_CACTVS_TAUTO_COUNT>
5

> <PUBCHEM_COORDINATE_TYPE>
1
5
255

> <PUBCHEM_BONDANNOTATIONS>
1  12  8
1  17  8
11  12  8
11  15  8
11  19  8
12  14  8
13  14  8
13  18  8
15  18  8
17  20  8
19  20  8
21  25  8
21  26  8
25  27  8
26  28  8
27  29  8
28  29  8

$$$$
68438994
  -OEChem-05231305452D

 21 21  0     1  0  0  0  0  0999 V2000
    3.7320    2.0000    0.0000 P   0  0  3  0  0  0  0  0  0  0  0  0
    3.7320    1.0000    0.0000 O   0  0  0  0  0  0  0  0  0  0  0  0
    2.8660   -0.5000    0.0000 C   0  0  0  0  0  0  0  0  0  0  0  0
    2.8660    0.5000    0.0000 C   0  0  0  0  0  0  0  0  0  0  0  0
    2.0000   -1.0000    0.0000 C   0  0  0  0  0  0  0  0  0  0  0  0
    3.7320   -1.0000    0.0000 C   0  0  0  0  0  0  0  0  0  0  0  0
    2.0000   -2.0000    0.0000 C   0  0  0  0  0  0  0  0  0  0  0  0
    3.7320   -2.0000    0.0000 C   0  0  0  0  0  0  0  0  0  0  0  0
    2.8660   -2.5000    0.0000 C   0  0  0  0  0  0  0  0  0  0  0  0
    4.5981    2.5000    0.0000 C   0  0  0  0  0  0  0  0  0  0  0  0
    2.6540    1.0826    0.0000 H   0  0  0  0  0  0  0  0  0  0  0  0
    2.2554    0.3923    0.0000 H   0  0  0  0  0  0  0  0  0  0  0  0
    1.4631   -0.6900    0.0000 H   0  0  0  0  0  0  0  0  0  0  0  0
    4.2690   -0.6900    0.0000 H   0  0  0  0  0  0  0  0  0  0  0  0
    1.4631   -2.3100    0.0000 H   0  0  0  0  0  0  0  0  0  0  0  0
    4.2690   -2.3100    0.0000 H   0  0  0  0  0  0  0  0  0  0  0  0
    2.8660   -3.1200    0.0000 H   0  0  0  0  0  0  0  0  0  0  0  0
    3.1951    2.3100    0.0000 H   0  0  0  0  0  0  0  0  0  0  0  0
    4.9081    1.9631    0.0000 H   0  0  0  0  0  0  0  0  0  0  0  0
    5.1350    2.8100    0.0000 H   0  0  0  0  0  0  0  0  0  0  0  0
    4.2881    3.0369    0.0000 H   0  0  0  0  0  0  0  0  0  0  0  0
  1  2  1  0  0  0  0
  1 10  1  0  0  0  0
  1 18  1  0  0  0  0
  2  4  1  0  0  0  0
  3  4  1  0  0  0  0
  3  5  2  0  0  0  0
  3  6  1  0  0  0  0
  4 11  1  0  0  0  0
  4 12  1  0  0  0  0
  5  7  1  0  0  0  0
  5 13  1  0  0  0  0
  6  8  2  0  0  0  0
  6 14  1  0  0  0  0
  7  9  2  0  0  0  0
  7 15  1  0  0  0  0
  8  9  1  0  0  0  0
  8 16  1  0  0  0  0
  9 17  1  0  0  0  0
 10 19  1  0  0  0  0
 10 20  1  0  0  0  0
 10 21  1  0  0  0  0
M  END
> <PUBCHEM_COMPOUND_CID>
68438994

> <PUBCHEM_COMPOUND_CANONICALIZED>
1

> <PUBCHEM_CACTVS_COMPLEXITY>
79.3

> <PUBCHEM_CACTVS_HBOND_ACCEPTOR>
1

> <PUBCHEM_CACTVS_HBOND_DONOR>
0

> <PUBCHEM_CACTVS_ROTATABLE_BOND>
3

> <PUBCHEM_CACTVS_SUBSKEYS>
AAADccBwIAIAAAAAAAAAAAAAAAAAAAAAAAAwAAAAAAAAAAABAAAAGggAACAQDACgmAIyAIAAAQCAAiBCAAACAAAgAAAIiAAACIgIJiKAERCAMAAkwAEIiAeAwCAOAAAAAAAAAAAAAAAAAAAAAAAAAAAAAA==

> <PUBCHEM_IUPAC_OPENEYE_NAME>
benzyloxy(methyl)phosphane

> <PUBCHEM_IUPAC_CAS_NAME>
methyl(phenylmethoxy)phosphine

> <PUBCHEM_IUPAC_NAME>
methyl(phenylmethoxy)phosphane

> <PUBCHEM_IUPAC_SYSTEMATIC_NAME>
methyl(phenylmethoxy)phosphane

> <PUBCHEM_IUPAC_TRADITIONAL_NAME>
benzoxy(methyl)phosphine

> <PUBCHEM_IUPAC_INCHI>
InChI=1S/C8H11OP/c1-10-9-7-8-5-3-2-4-6-8/h2-6,10H,7H2,1H3

> <PUBCHEM_IUPAC_INCHIKEY>
YNGRZMIQQFBCPV-UHFFFAOYSA-N

> <PUBCHEM_XLOGP3>
1.8

> <PUBCHEM_EXACT_MASS>
154.054752

> <PUBCHEM_MOLECULAR_FORMULA>
C8H11OP

> <PUBCHEM_MOLECULAR_WEIGHT>
154.146102

> <PUBCHEM_OPENEYE_CAN_SMILES>
CPOCC1=CC=CC=C1

> <PUBCHEM_OPENEYE_ISO_SMILES>
CPOCC1=CC=CC=C1

> <PUBCHEM_CACTVS_TPSA>
9.2

> <PUBCHEM_MONOISOTOPIC_WEIGHT>
154.054752

> <PUBCHEM_TOTAL_CHARGE>
0

> <PUBCHEM_HEAVY_ATOM_COUNT>
10

> <PUBCHEM_ATOM_DEF_STEREO_COUNT>
0

> <PUBCHEM_ATOM_UDEF_STEREO_COUNT>
0

> <PUBCHEM_BOND_DEF_STEREO_COUNT>
0

> <PUBCHEM_BOND_UDEF_STEREO_COUNT>
0

> <PUBCHEM_ISOTOPIC_ATOM_COUNT>
0

> <PUBCHEM_COMPONENT_COUNT>
1

> <PUBCHEM_CACTVS_TAUTO_COUNT>
1

> <PUBCHEM_COORDINATE_TYPE>
1
5
255

> <PUBCHEM_BONDANNOTATIONS>
3  5  8
3  6  8
5  7  8
6  8  8
7  9  8
8  9  8

$$$$
68446390
  -OEChem-05231305462D

 38 39  0     1  0  0  0  0  0999 V2000
    4.5000    0.0000    0.0000 O   0  0  0  0  0  0  0  0  0  0  0  0
    3.5000   -1.0000    0.0000 C   0  0  0  0  0  0  0  0  0  0  0  0
    3.5000    0.0000    0.0000 C   0  0  2  0  0  0  0  0  0  0  0  0
    2.6340   -1.5000    0.0000 C   0  0  0  0  0  0  0  0  0  0  0  0
    4.3660   -1.5000    0.0000 C   0  0  0  0  0  0  0  0  0  0  0  0
    2.6340   -2.5000    0.0000 C   0  0  0  0  0  0  0  0  0  0  0  0
    4.3660   -2.5000    0.0000 C   0  0  0  0  0  0  0  0  0  0  0  0
    3.5000   -3.0000    0.0000 C   0  0  0  0  0  0  0  0  0  0  0  0
    2.5000    0.0000    0.0000 C   0  0  0  0  0  0  0  0  0  0  0  0
    3.5000    1.0000    0.0000 C   0  0  0  0  0  0  0  0  0  0  0  0
    2.0000    0.8660    0.0000 C   0  0  0  0  0  0  0  0  0  0  0  0
    2.6340    1.5000    0.0000 C   0  0  0  0  0  0  0  0  0  0  0  0
    4.3660    1.5000    0.0000 C   0  0  0  0  0  0  0  0  0  0  0  0
    2.6340    2.5000    0.0000 C   0  0  0  0  0  0  0  0  0  0  0  0
    4.3660    2.5000    0.0000 C   0  0  0  0  0  0  0  0  0  0  0  0
    3.5000    3.0000    0.0000 C   0  0  0  0  0  0  0  0  0  0  0  0
    4.0369   -0.6900    0.0000 H   0  0  0  0  0  0  0  0  0  0  0  0
    2.4219   -0.9174    0.0000 H   0  0  0  0  0  0  0  0  0  0  0  0
    2.0234   -1.6077    0.0000 H   0  0  0  0  0  0  0  0  0  0  0  0
    4.9766   -1.6077    0.0000 H   0  0  0  0  0  0  0  0  0  0  0  0
    4.5781   -0.9174    0.0000 H   0  0  0  0  0  0  0  0  0  0  0  0
    2.0234   -2.3923    0.0000 H   0  0  0  0  0  0  0  0  0  0  0  0
    2.4219   -3.0826    0.0000 H   0  0  0  0  0  0  0  0  0  0  0  0
    4.5781   -3.0826    0.0000 H   0  0  0  0  0  0  0  0  0  0  0  0
    4.9766   -2.3923    0.0000 H   0  0  0  0  0  0  0  0  0  0  0  0
    3.1015   -3.4750    0.0000 H   0  0  0  0  0  0  0  0  0  0  0  0
    3.8985   -3.4750    0.0000 H   0  0  0  0  0  0  0  0  0  0  0  0
    1.9174   -0.2121    0.0000 H   0  0  0  0  0  0  0  0  0  0  0  0
    2.6077   -0.6106    0.0000 H   0  0  0  0  0  0  0  0  0  0  0  0
    4.8100   -0.5369    0.0000 H   0  0  0  0  0  0  0  0  0  0  0  0
    2.5369    1.1760    0.0000 H   0  0  0  0  0  0  0  0  0  0  0  0
    1.6900    1.4030    0.0000 H   0  0  0  0  0  0  0  0  0  0  0  0
    1.4631    0.5560    0.0000 H   0  0  0  0  0  0  0  0  0  0  0  0
    2.0970    1.1900    0.0000 H   0  0  0  0  0  0  0  0  0  0  0  0
    4.9030    1.1900    0.0000 H   0  0  0  0  0  0  0  0  0  0  0  0
    2.0970    2.8100    0.0000 H   0  0  0  0  0  0  0  0  0  0  0  0
    4.9030    2.8100    0.0000 H   0  0  0  0  0  0  0  0  0  0  0  0
    3.5000    3.6200    0.0000 H   0  0  0  0  0  0  0  0  0  0  0  0
  3  1  1  6  0  0  0
  1 30  1  0  0  0  0
  2  3  1  0  0  0  0
  2  4  1  0  0  0  0
  2  5  1  0  0  0  0
  2 17  1  0  0  0  0
  3  9  1  0  0  0  0
  3 10  1  0  0  0  0
  4  6  1  0  0  0  0
  4 18  1  0  0  0  0
  4 19  1  0  0  0  0
  5  7  1  0  0  0  0
  5 20  1  0  0  0  0
  5 21  1  0  0  0  0
  6  8  1  0  0  0  0
  6 22  1  0  0  0  0
  6 23  1  0  0  0  0
  7  8  1  0  0  0  0
  7 24  1  0  0  0  0
  7 25  1  0  0  0  0
  8 26  1  0  0  0  0
  8 27  1  0  0  0  0
  9 11  1  0  0  0  0
  9 28  1  0  0  0  0
  9 29  1  0  0  0  0
 10 12  2  0  0  0  0
 10 13  1  0  0  0  0
 11 31  1  0  0  0  0
 11 32  1  0  0  0  0
 11 33  1  0  0  0  0
 12 14  1  0  0  0  0
 12 34  1  0  0  0  0
 13 15  2  0  0  0  0
 13 35  1  0  0  0  0
 14 16  2  0  0  0  0
 14 36  1  0  0  0  0
 15 16  1  0  0  0  0
 15 37  1  0  0  0  0
 16 38  1  0  0  0  0
M  END
> <PUBCHEM_COMPOUND_CID>
68446390

> <PUBCHEM_COMPOUND_CANONICALIZED>
1

> <PUBCHEM_CACTVS_COMPLEXITY>
202

> <PUBCHEM_CACTVS_HBOND_ACCEPTOR>
1

> <PUBCHEM_CACTVS_HBOND_DONOR>
1

> <PUBCHEM_CACTVS_ROTATABLE_BOND>
3

> <PUBCHEM_CACTVS_SUBSKEYS>
AAADceBwIAAAAAAAAAAAAAAAAAAAAAAAAAAwYAAAAAAAAAABAAAAGgAACAAADUSAmAAyAIAAAgCAAiBCAAACAAAgAAAIiAAACIgIJiKAERCAcAAkwAEImAeAwOAOgAAAAAAAAAAAAAAAAAAAAAAAAAAAAA==

> <PUBCHEM_IUPAC_OPENEYE_NAME>
(1S)-1-cyclohexyl-1-phenyl-propan-1-ol

> <PUBCHEM_IUPAC_CAS_NAME>
(1S)-1-cyclohexyl-1-phenyl-1-propanol

> <PUBCHEM_IUPAC_NAME>
(1S)-1-cyclohexyl-1-phenylpropan-1-ol

> <PUBCHEM_IUPAC_SYSTEMATIC_NAME>
(1S)-1-cyclohexyl-1-phenyl-propan-1-ol

> <PUBCHEM_IUPAC_TRADITIONAL_NAME>
(1S)-1-cyclohexyl-1-phenyl-propan-1-ol

> <PUBCHEM_IUPAC_INCHI>
InChI=1S/C15H22O/c1-2-15(16,13-9-5-3-6-10-13)14-11-7-4-8-12-14/h3,5-6,9-10,14,16H,2,4,7-8,11-12H2,1H3/t15-/m1/s1

> <PUBCHEM_IUPAC_INCHIKEY>
DWHWDJWOKNLRJO-OAHLLOKOSA-N

> <PUBCHEM_XLOGP3>
4.1

> <PUBCHEM_EXACT_MASS>
218.167065

> <PUBCHEM_MOLECULAR_FORMULA>
C15H22O

> <PUBCHEM_MOLECULAR_WEIGHT>
218.33458

> <PUBCHEM_OPENEYE_CAN_SMILES>
CCC(C1CCCCC1)(C2=CC=CC=C2)O

> <PUBCHEM_OPENEYE_ISO_SMILES>
CC[C@](C1CCCCC1)(C2=CC=CC=C2)O

> <PUBCHEM_CACTVS_TPSA>
20.2

> <PUBCHEM_MONOISOTOPIC_WEIGHT>
218.167065

> <PUBCHEM_TOTAL_CHARGE>
0

> <PUBCHEM_HEAVY_ATOM_COUNT>
16

> <PUBCHEM_ATOM_DEF_STEREO_COUNT>
1

> <PUBCHEM_ATOM_UDEF_STEREO_COUNT>
0

> <PUBCHEM_BOND_DEF_STEREO_COUNT>
0

> <PUBCHEM_BOND_UDEF_STEREO_COUNT>
0

> <PUBCHEM_ISOTOPIC_ATOM_COUNT>
0

> <PUBCHEM_COMPONENT_COUNT>
1

> <PUBCHEM_CACTVS_TAUTO_COUNT>
1

> <PUBCHEM_COORDINATE_TYPE>
1
5
255

> <PUBCHEM_BONDANNOTATIONS>
3  1  6
10  12  8
10  13  8
12  14  8
13  15  8
14  16  8
15  16  8

$$$$
