42473223
  -OEChem-11301217512D

 43 44  0     1  0  0  0  0  0999 V2000
    2.0000   -3.1216    0.0000 Cl  0  0  0  0  0  0  0  0  0  0  0  0
    5.4641   -0.1216    0.0000 O   0  0  0  0  0  0  0  0  0  0  0  0
    6.3301    3.3784    0.0000 N   0  3  0  0  0  0  0  0  0  0  0  0
    4.5981    1.3784    0.0000 N   0  0  0  0  0  0  0  0  0  0  0  0
    3.7320   -0.1216    0.0000 N   0  0  0  0  0  0  0  0  0  0  0  0
    6.9993    4.1216    0.0000 C   0  0  0  0  0  0  0  0  0  0  0  0
    6.8301    2.5124    0.0000 C   0  0  0  0  0  0  0  0  0  0  0  0
    5.4641    2.8784    0.0000 C   0  0  2  0  0  0  0  0  0  0  0  0
    7.9128    3.7148    0.0000 C   0  0  0  0  0  0  0  0  0  0  0  0
    7.8083    2.7203    0.0000 C   0  0  0  0  0  0  0  0  0  0  0  0
    5.4641    1.8784    0.0000 C   0  0  0  0  0  0  0  0  0  0  0  0
    4.5981    3.3784    0.0000 C   0  0  0  0  0  0  0  0  0  0  0  0
    4.5981    0.3784    0.0000 C   0  0  0  0  0  0  0  0  0  0  0  0
    3.7320   -1.1216    0.0000 C   0  0  0  0  0  0  0  0  0  0  0  0
    2.8660   -1.6216    0.0000 C   0  0  0  0  0  0  0  0  0  0  0  0
    4.5981   -1.6216    0.0000 C   0  0  0  0  0  0  0  0  0  0  0  0
    3.7320   -3.1216    0.0000 C   0  0  0  0  0  0  0  0  0  0  0  0
    2.8660   -2.6216    0.0000 C   0  0  0  0  0  0  0  0  0  0  0  0
    4.5981   -2.6216    0.0000 C   0  0  0  0  0  0  0  0  0  0  0  0
    3.7320   -4.1216    0.0000 C   0  0  0  0  0  0  0  0  0  0  0  0
    5.5870    4.0476    0.0000 H   0  0  0  0  0  0  0  0  0  0  0  0
    7.3093    4.6585    0.0000 H   0  0  0  0  0  0  0  0  0  0  0  0
    6.4977    4.4860    0.0000 H   0  0  0  0  0  0  0  0  0  0  0  0
    6.2637    2.2602    0.0000 H   0  0  0  0  0  0  0  0  0  0  0  0
    7.0217    1.9228    0.0000 H   0  0  0  0  0  0  0  0  0  0  0  0
    5.4641    3.4984    0.0000 H   0  0  0  0  0  0  0  0  0  0  0  0
    8.5192    3.5859    0.0000 H   0  0  0  0  0  0  0  0  0  0  0  0
    7.8731    2.1037    0.0000 H   0  0  0  0  0  0  0  0  0  0  0  0
    8.4283    2.7203    0.0000 H   0  0  0  0  0  0  0  0  0  0  0  0
    8.1044    4.3045    0.0000 H   0  0  0  0  0  0  0  0  0  0  0  0
    5.6762    1.2958    0.0000 H   0  0  0  0  0  0  0  0  0  0  0  0
    6.0747    1.9861    0.0000 H   0  0  0  0  0  0  0  0  0  0  0  0
    4.9081    3.9154    0.0000 H   0  0  0  0  0  0  0  0  0  0  0  0
    4.0611    3.6884    0.0000 H   0  0  0  0  0  0  0  0  0  0  0  0
    4.2881    2.8415    0.0000 H   0  0  0  0  0  0  0  0  0  0  0  0
    4.0611    1.6884    0.0000 H   0  0  0  0  0  0  0  0  0  0  0  0
    3.1951    0.1884    0.0000 H   0  0  0  0  0  0  0  0  0  0  0  0
    2.3291   -1.3116    0.0000 H   0  0  0  0  0  0  0  0  0  0  0  0
    5.1350   -1.3116    0.0000 H   0  0  0  0  0  0  0  0  0  0  0  0
    5.1350   -2.9316    0.0000 H   0  0  0  0  0  0  0  0  0  0  0  0
    3.1120   -4.1216    0.0000 H   0  0  0  0  0  0  0  0  0  0  0  0
    3.7320   -4.7416    0.0000 H   0  0  0  0  0  0  0  0  0  0  0  0
    4.3520   -4.1216    0.0000 H   0  0  0  0  0  0  0  0  0  0  0  0
  1 18  1  0  0  0  0
  2 13  2  0  0  0  0
  3  6  1  0  0  0  0
  3  7  1  0  0  0  0
  3  8  1  0  0  0  0
  3 21  1  0  0  0  0
  4 11  1  0  0  0  0
  4 13  1  0  0  0  0
  4 36  1  0  0  0  0
  5 13  1  0  0  0  0
  5 14  1  0  0  0  0
  5 37  1  0  0  0  0
  6  9  1  0  0  0  0
  6 22  1  0  0  0  0
  6 23  1  0  0  0  0
  7 10  1  0  0  0  0
  7 24  1  0  0  0  0
  7 25  1  0  0  0  0
  8 11  1  0  0  0  0
  8 12  1  6  0  0  0
  8 26  1  0  0  0  0
  9 10  1  0  0  0  0
  9 27  1  0  0  0  0
  9 30  1  0  0  0  0
 10 28  1  0  0  0  0
 10 29  1  0  0  0  0
 11 31  1  0  0  0  0
 11 32  1  0  0  0  0
 12 33  1  0  0  0  0
 12 34  1  0  0  0  0
 12 35  1  0  0  0  0
 14 15  2  0  0  0  0
 14 16  1  0  0  0  0
 15 18  1  0  0  0  0
 15 38  1  0  0  0  0
 16 19  2  0  0  0  0
 16 39  1  0  0  0  0
 17 18  2  0  0  0  0
 17 19  1  0  0  0  0
 17 20  1  0  0  0  0
 19 40  1  0  0  0  0
 20 41  1  0  0  0  0
 20 42  1  0  0  0  0
 20 43  1  0  0  0  0
M  CHG  1   3   1
M  END
> <PUBCHEM_COMPOUND_CID>
42473223

> <PUBCHEM_COMPOUND_CANONICALIZED>
1

> <PUBCHEM_CACTVS_COMPLEXITY>
320

> <PUBCHEM_CACTVS_HBOND_ACCEPTOR>
1

> <PUBCHEM_CACTVS_HBOND_DONOR>
3

> <PUBCHEM_CACTVS_ROTATABLE_BOND>
4

> <PUBCHEM_CACTVS_SUBSKEYS>
AAADceBzIAAEAAAAAAAAAAAAAAAAAWAAAAAwAAAAAAAAAAABAAAAHgIQAAAADCrBGCQzwIPAAACIAiRCUACCAAAhBwAIiIAIZoiIYCLBk5GUIAholgLIyCcQgAAOCAAAAAIBAAAQAAAABAIAAAAAAAAAAA==

> <PUBCHEM_IUPAC_OPENEYE_NAME>
1-(3-chloro-4-methyl-phenyl)-3-[(2S)-2-pyrrolidin-1-ium-1-ylpropyl]urea

> <PUBCHEM_IUPAC_CAS_NAME>
1-(3-chloro-4-methylphenyl)-3-[(2S)-2-(1-pyrrolidin-1-iumyl)propyl]urea

> <PUBCHEM_IUPAC_NAME>
1-(3-chloro-4-methylphenyl)-3-[(2S)-2-pyrrolidin-1-ium-1-ylpropyl]urea

> <PUBCHEM_IUPAC_SYSTEMATIC_NAME>
1-(3-chloranyl-4-methyl-phenyl)-3-[(2S)-2-pyrrolidin-1-ium-1-ylpropyl]urea

> <PUBCHEM_IUPAC_TRADITIONAL_NAME>
1-(3-chloro-4-methyl-phenyl)-3-[(2S)-2-pyrrolidin-1-ium-1-ylpropyl]urea

> <PUBCHEM_IUPAC_INCHI>
InChI=1S/C15H22ClN3O/c1-11-5-6-13(9-14(11)16)18-15(20)17-10-12(2)19-7-3-4-8-19/h5-6,9,12H,3-4,7-8,10H2,1-2H3,(H2,17,18,20)/p+1/t12-/m0/s1

> <PUBCHEM_IUPAC_INCHIKEY>
NTUZGTSAVUAGHU-LBPRGKRZSA-O

> <PUBCHEM_XLOGP3>
3.6

> <PUBCHEM_EXACT_MASS>
296.152965

> <PUBCHEM_MOLECULAR_FORMULA>
C15H23ClN3O+

> <PUBCHEM_MOLECULAR_WEIGHT>
296.81562

> <PUBCHEM_OPENEYE_CAN_SMILES>
CC1=C(C=C(C=C1)NC(=O)NCC(C)[NH+]2CCCC2)Cl

> <PUBCHEM_OPENEYE_ISO_SMILES>
CC1=C(C=C(C=C1)NC(=O)NC[C@H](C)[NH+]2CCCC2)Cl

> <PUBCHEM_CACTVS_TPSA>
45.6

> <PUBCHEM_MONOISOTOPIC_WEIGHT>
296.152965

> <PUBCHEM_TOTAL_CHARGE>
1

> <PUBCHEM_HEAVY_ATOM_COUNT>
20

> <PUBCHEM_ATOM_DEF_STEREO_COUNT>
1

> <PUBCHEM_ATOM_UDEF_STEREO_COUNT>
0

> <PUBCHEM_BOND_DEF_STEREO_COUNT>
0

> <PUBCHEM_BOND_UDEF_STEREO_COUNT>
0

> <PUBCHEM_ISOTOPIC_ATOM_COUNT>
0

> <PUBCHEM_COMPONENT_COUNT>
1

> <PUBCHEM_CACTVS_TAUTO_COUNT>
3

> <PUBCHEM_COORDINATE_TYPE>
1
5
255

> <PUBCHEM_BONDANNOTATIONS>
14  15  8
14  16  8
15  18  8
16  19  8
17  18  8
17  19  8
8  12  6

$$$$
42473226
  -OEChem-11301217512D

 43 44  0     1  0  0  0  0  0999 V2000
    2.0000   -3.1216    0.0000 Cl  0  0  0  0  0  0  0  0  0  0  0  0
    5.4641   -0.1216    0.0000 O   0  0  0  0  0  0  0  0  0  0  0  0
    6.3301    3.3784    0.0000 N   0  3  0  0  0  0  0  0  0  0  0  0
    4.5981    1.3784    0.0000 N   0  0  0  0  0  0  0  0  0  0  0  0
    3.7320   -0.1216    0.0000 N   0  0  0  0  0  0  0  0  0  0  0  0
    6.9993    4.1216    0.0000 C   0  0  0  0  0  0  0  0  0  0  0  0
    6.8301    2.5124    0.0000 C   0  0  0  0  0  0  0  0  0  0  0  0
    5.4641    2.8784    0.0000 C   0  0  1  0  0  0  0  0  0  0  0  0
    7.9128    3.7148    0.0000 C   0  0  0  0  0  0  0  0  0  0  0  0
    7.8083    2.7203    0.0000 C   0  0  0  0  0  0  0  0  0  0  0  0
    5.4641    1.8784    0.0000 C   0  0  0  0  0  0  0  0  0  0  0  0
    4.5981    3.3784    0.0000 C   0  0  0  0  0  0  0  0  0  0  0  0
    4.5981    0.3784    0.0000 C   0  0  0  0  0  0  0  0  0  0  0  0
    3.7320   -1.1216    0.0000 C   0  0  0  0  0  0  0  0  0  0  0  0
    2.8660   -1.6216    0.0000 C   0  0  0  0  0  0  0  0  0  0  0  0
    4.5981   -1.6216    0.0000 C   0  0  0  0  0  0  0  0  0  0  0  0
    3.7320   -3.1216    0.0000 C   0  0  0  0  0  0  0  0  0  0  0  0
    2.8660   -2.6216    0.0000 C   0  0  0  0  0  0  0  0  0  0  0  0
    4.5981   -2.6216    0.0000 C   0  0  0  0  0  0  0  0  0  0  0  0
    3.7320   -4.1216    0.0000 C   0  0  0  0  0  0  0  0  0  0  0  0
    5.5870    4.0476    0.0000 H   0  0  0  0  0  0  0  0  0  0  0  0
    7.3093    4.6585    0.0000 H   0  0  0  0  0  0  0  0  0  0  0  0
    6.4977    4.4860    0.0000 H   0  0  0  0  0  0  0  0  0  0  0  0
    6.2637    2.2602    0.0000 H   0  0  0  0  0  0  0  0  0  0  0  0
    7.0217    1.9228    0.0000 H   0  0  0  0  0  0  0  0  0  0  0  0
    5.4641    3.4984    0.0000 H   0  0  0  0  0  0  0  0  0  0  0  0
    8.5192    3.5859    0.0000 H   0  0  0  0  0  0  0  0  0  0  0  0
    7.8731    2.1037    0.0000 H   0  0  0  0  0  0  0  0  0  0  0  0
    8.4283    2.7203    0.0000 H   0  0  0  0  0  0  0  0  0  0  0  0
    8.1044    4.3045    0.0000 H   0  0  0  0  0  0  0  0  0  0  0  0
    5.6762    1.2958    0.0000 H   0  0  0  0  0  0  0  0  0  0  0  0
    6.0747    1.9861    0.0000 H   0  0  0  0  0  0  0  0  0  0  0  0
    4.9081    3.9154    0.0000 H   0  0  0  0  0  0  0  0  0  0  0  0
    4.0611    3.6884    0.0000 H   0  0  0  0  0  0  0  0  0  0  0  0
    4.2881    2.8415    0.0000 H   0  0  0  0  0  0  0  0  0  0  0  0
    4.0611    1.6884    0.0000 H   0  0  0  0  0  0  0  0  0  0  0  0
    3.1951    0.1884    0.0000 H   0  0  0  0  0  0  0  0  0  0  0  0
    2.3291   -1.3116    0.0000 H   0  0  0  0  0  0  0  0  0  0  0  0
    5.1350   -1.3116    0.0000 H   0  0  0  0  0  0  0  0  0  0  0  0
    5.1350   -2.9316    0.0000 H   0  0  0  0  0  0  0  0  0  0  0  0
    3.1120   -4.1216    0.0000 H   0  0  0  0  0  0  0  0  0  0  0  0
    3.7320   -4.7416    0.0000 H   0  0  0  0  0  0  0  0  0  0  0  0
    4.3520   -4.1216    0.0000 H   0  0  0  0  0  0  0  0  0  0  0  0
  1 18  1  0  0  0  0
  2 13  2  0  0  0  0
  3  6  1  0  0  0  0
  3  7  1  0  0  0  0
  3  8  1  0  0  0  0
  3 21  1  0  0  0  0
  4 11  1  0  0  0  0
  4 13  1  0  0  0  0
  4 36  1  0  0  0  0
  5 13  1  0  0  0  0
  5 14  1  0  0  0  0
  5 37  1  0  0  0  0
  6  9  1  0  0  0  0
  6 22  1  0  0  0  0
  6 23  1  0  0  0  0
  7 10  1  0  0  0  0
  7 24  1  0  0  0  0
  7 25  1  0  0  0  0
  8 11  1  0  0  0  0
  8 12  1  1  0  0  0
  8 26  1  0  0  0  0
  9 10  1  0  0  0  0
  9 27  1  0  0  0  0
  9 30  1  0  0  0  0
 10 28  1  0  0  0  0
 10 29  1  0  0  0  0
 11 31  1  0  0  0  0
 11 32  1  0  0  0  0
 12 33  1  0  0  0  0
 12 34  1  0  0  0  0
 12 35  1  0  0  0  0
 14 15  2  0  0  0  0
 14 16  1  0  0  0  0
 15 18  1  0  0  0  0
 15 38  1  0  0  0  0
 16 19  2  0  0  0  0
 16 39  1  0  0  0  0
 17 18  2  0  0  0  0
 17 19  1  0  0  0  0
 17 20  1  0  0  0  0
 19 40  1  0  0  0  0
 20 41  1  0  0  0  0
 20 42  1  0  0  0  0
 20 43  1  0  0  0  0
M  CHG  1   3   1
M  END
> <PUBCHEM_COMPOUND_CID>
42473226

> <PUBCHEM_COMPOUND_CANONICALIZED>
1

> <PUBCHEM_CACTVS_COMPLEXITY>
320

> <PUBCHEM_CACTVS_HBOND_ACCEPTOR>
1

> <PUBCHEM_CACTVS_HBOND_DONOR>
3

> <PUBCHEM_CACTVS_ROTATABLE_BOND>
4

> <PUBCHEM_CACTVS_SUBSKEYS>
AAADceBzIAAEAAAAAAAAAAAAAAAAAWAAAAAwAAAAAAAAAAABAAAAHgIQAAAADCrBGCQzwIPAAACIAiRCUACCAAAhBwAIiIAIZoiIYCLBk5GUIAholgLIyCcQgAAOCAAAAAIBAAAQAAAABAIAAAAAAAAAAA==

> <PUBCHEM_IUPAC_OPENEYE_NAME>
1-(3-chloro-4-methyl-phenyl)-3-[(2R)-2-pyrrolidin-1-ium-1-ylpropyl]urea

> <PUBCHEM_IUPAC_CAS_NAME>
1-(3-chloro-4-methylphenyl)-3-[(2R)-2-(1-pyrrolidin-1-iumyl)propyl]urea

> <PUBCHEM_IUPAC_NAME>
1-(3-chloro-4-methylphenyl)-3-[(2R)-2-pyrrolidin-1-ium-1-ylpropyl]urea

> <PUBCHEM_IUPAC_SYSTEMATIC_NAME>
1-(3-chloranyl-4-methyl-phenyl)-3-[(2R)-2-pyrrolidin-1-ium-1-ylpropyl]urea

> <PUBCHEM_IUPAC_TRADITIONAL_NAME>
1-(3-chloro-4-methyl-phenyl)-3-[(2R)-2-pyrrolidin-1-ium-1-ylpropyl]urea

> <PUBCHEM_IUPAC_INCHI>
InChI=1S/C15H22ClN3O/c1-11-5-6-13(9-14(11)16)18-15(20)17-10-12(2)19-7-3-4-8-19/h5-6,9,12H,3-4,7-8,10H2,1-2H3,(H2,17,18,20)/p+1/t12-/m1/s1

> <PUBCHEM_IUPAC_INCHIKEY>
NTUZGTSAVUAGHU-GFCCVEGCSA-O

> <PUBCHEM_XLOGP3>
3.6

> <PUBCHEM_EXACT_MASS>
296.152965

> <PUBCHEM_MOLECULAR_FORMULA>
C15H23ClN3O+

> <PUBCHEM_MOLECULAR_WEIGHT>
296.81562

> <PUBCHEM_OPENEYE_CAN_SMILES>
CC1=C(C=C(C=C1)NC(=O)NCC(C)[NH+]2CCCC2)Cl

> <PUBCHEM_OPENEYE_ISO_SMILES>
CC1=C(C=C(C=C1)NC(=O)NC[C@@H](C)[NH+]2CCCC2)Cl

> <PUBCHEM_CACTVS_TPSA>
45.6

> <PUBCHEM_MONOISOTOPIC_WEIGHT>
296.152965

> <PUBCHEM_TOTAL_CHARGE>
1

> <PUBCHEM_HEAVY_ATOM_COUNT>
20

> <PUBCHEM_ATOM_DEF_STEREO_COUNT>
1

> <PUBCHEM_ATOM_UDEF_STEREO_COUNT>
0

> <PUBCHEM_BOND_DEF_STEREO_COUNT>
0

> <PUBCHEM_BOND_UDEF_STEREO_COUNT>
0

> <PUBCHEM_ISOTOPIC_ATOM_COUNT>
0

> <PUBCHEM_COMPONENT_COUNT>
1

> <PUBCHEM_CACTVS_TAUTO_COUNT>
3

> <PUBCHEM_COORDINATE_TYPE>
1
5
255

> <PUBCHEM_BONDANNOTATIONS>
14  15  8
14  16  8
15  18  8
16  19  8
17  18  8
17  19  8
8  12  5

$$$$
