33754749
  -OEChem-12041211462D

 24 25  0     0  0  0  0  0  0999 V2000
    7.2764    0.6077    0.0000 N   0  0  0  0  0  0  0  0  0  0  0  0
    2.8660    0.3030    0.0000 N   0  0  0  0  0  0  0  0  0  0  0  0
    6.3301    0.3030    0.0000 C   0  0  0  0  0  0  0  0  0  0  0  0
    4.5981    0.3030    0.0000 C   0  0  0  0  0  0  0  0  0  0  0  0
    6.3301   -0.6970    0.0000 C   0  0  0  0  0  0  0  0  0  0  0  0
    5.4641    0.8030    0.0000 C   0  0  0  0  0  0  0  0  0  0  0  0
    3.7320    0.8030    0.0000 C   0  0  0  0  0  0  0  0  0  0  0  0
    4.5981   -0.6970    0.0000 C   0  0  0  0  0  0  0  0  0  0  0  0
    5.4641   -1.1970    0.0000 C   0  0  0  0  0  0  0  0  0  0  0  0
    7.2764   -1.0018    0.0000 C   0  0  0  0  0  0  0  0  0  0  0  0
    7.8600   -0.1970    0.0000 C   0  0  0  0  0  0  0  0  0  0  0  0
    2.0000    0.8030    0.0000 C   0  0  0  0  0  0  0  0  0  0  0  0
    5.4641    1.4230    0.0000 H   0  0  0  0  0  0  0  0  0  0  0  0
    4.1306    1.2779    0.0000 H   0  0  0  0  0  0  0  0  0  0  0  0
    3.3335    1.2779    0.0000 H   0  0  0  0  0  0  0  0  0  0  0  0
    4.0611   -1.0070    0.0000 H   0  0  0  0  0  0  0  0  0  0  0  0
    5.4641   -1.8170    0.0000 H   0  0  0  0  0  0  0  0  0  0  0  0
    7.4690    1.1970    0.0000 H   0  0  0  0  0  0  0  0  0  0  0  0
    7.4690   -1.5911    0.0000 H   0  0  0  0  0  0  0  0  0  0  0  0
    8.4800   -0.1970    0.0000 H   0  0  0  0  0  0  0  0  0  0  0  0
    2.8660   -0.3170    0.0000 H   0  0  0  0  0  0  0  0  0  0  0  0
    2.3100    1.3399    0.0000 H   0  0  0  0  0  0  0  0  0  0  0  0
    1.4631    1.1130    0.0000 H   0  0  0  0  0  0  0  0  0  0  0  0
    1.6900    0.2660    0.0000 H   0  0  0  0  0  0  0  0  0  0  0  0
  1  3  1  0  0  0  0
  1 11  1  0  0  0  0
  1 18  1  0  0  0  0
  2  7  1  0  0  0  0
  2 12  1  0  0  0  0
  2 21  1  0  0  0  0
  3  5  2  0  0  0  0
  3  6  1  0  0  0  0
  4  6  2  0  0  0  0
  4  7  1  0  0  0  0
  4  8  1  0  0  0  0
  5  9  1  0  0  0  0
  5 10  1  0  0  0  0
  6 13  1  0  0  0  0
  7 14  1  0  0  0  0
  7 15  1  0  0  0  0
  8  9  2  0  0  0  0
  8 16  1  0  0  0  0
  9 17  1  0  0  0  0
 10 11  2  0  0  0  0
 10 19  1  0  0  0  0
 11 20  1  0  0  0  0
 12 22  1  0  0  0  0
 12 23  1  0  0  0  0
 12 24  1  0  0  0  0
M  END
> <PUBCHEM_COMPOUND_CID>
33754749

> <PUBCHEM_COMPOUND_CANONICALIZED>
1

> <PUBCHEM_CACTVS_COMPLEXITY>
147

> <PUBCHEM_CACTVS_HBOND_ACCEPTOR>
1

> <PUBCHEM_CACTVS_HBOND_DONOR>
2

> <PUBCHEM_CACTVS_ROTATABLE_BOND>
2

> <PUBCHEM_CACTVS_SUBSKEYS>
AAADccBzAAAAAAAAAAAAAAAAAAAAAWAAAAAwAAAAAAAAAFgB8AAAHAAQAAAADAjBHgQ+wPLJkACgAzRnRACCgCAxAiAI2aA4ZJgIIOLAkZGEIAhgkADIyAcQgMAOQAAAQAACAACAAACAAAQAAAAAAAAAAA==

> <PUBCHEM_IUPAC_OPENEYE_NAME>
1-(1H-indol-6-yl)-N-methyl-methanamine

> <PUBCHEM_IUPAC_CAS_NAME>
1-(1H-indol-6-yl)-N-methylmethanamine

> <PUBCHEM_IUPAC_NAME>
1-(1H-indol-6-yl)-N-methylmethanamine

> <PUBCHEM_IUPAC_SYSTEMATIC_NAME>
1-(1H-indol-6-yl)-N-methyl-methanamine

> <PUBCHEM_IUPAC_TRADITIONAL_NAME>
1H-indol-6-ylmethyl(methyl)amine

> <PUBCHEM_IUPAC_INCHI>
InChI=1S/C10H12N2/c1-11-7-8-2-3-9-4-5-12-10(9)6-8/h2-6,11-12H,7H2,1H3

> <PUBCHEM_IUPAC_INCHIKEY>
LJHCAAWWHYJYHM-UHFFFAOYSA-N

> <PUBCHEM_XLOGP3>
2.3

> <PUBCHEM_EXACT_MASS>
160.100048

> <PUBCHEM_MOLECULAR_FORMULA>
C10H12N2

> <PUBCHEM_MOLECULAR_WEIGHT>
160.21568

> <PUBCHEM_OPENEYE_CAN_SMILES>
CNCC1=CC2=C(C=C1)C=CN2

> <PUBCHEM_OPENEYE_ISO_SMILES>
CNCC1=CC2=C(C=C1)C=CN2

> <PUBCHEM_CACTVS_TPSA>
27.8

> <PUBCHEM_MONOISOTOPIC_WEIGHT>
160.100048

> <PUBCHEM_TOTAL_CHARGE>
0

> <PUBCHEM_HEAVY_ATOM_COUNT>
12

> <PUBCHEM_ATOM_DEF_STEREO_COUNT>
0

> <PUBCHEM_ATOM_UDEF_STEREO_COUNT>
0

> <PUBCHEM_BOND_DEF_STEREO_COUNT>
0

> <PUBCHEM_BOND_UDEF_STEREO_COUNT>
0

> <PUBCHEM_ISOTOPIC_ATOM_COUNT>
0

> <PUBCHEM_COMPONENT_COUNT>
1

> <PUBCHEM_CACTVS_TAUTO_COUNT>
1

> <PUBCHEM_COORDINATE_TYPE>
1
5
255

> <PUBCHEM_BONDANNOTATIONS>
1  11  8
1  3  8
10  11  8
3  5  8
3  6  8
4  6  8
4  8  8
5  10  8
5  9  8
8  9  8

$$$$
33754758
  -OEChem-12041211462D

 29 31  0     0  0  0  0  0  0999 V2000
    3.8660    0.3030    0.0000 N   0  3  0  0  0  0  0  0  0  0  0  0
    8.2764    0.6077    0.0000 N   0  0  0  0  0  0  0  0  0  0  0  0
    3.0000   -0.1970    0.0000 C   0  0  0  0  0  0  0  0  0  0  0  0
    2.0000   -0.1970    0.0000 C   0  0  0  0  0  0  0  0  0  0  0  0
    2.5000   -1.0630    0.0000 C   0  0  0  0  0  0  0  0  0  0  0  0
    4.7320    0.8030    0.0000 C   0  0  0  0  0  0  0  0  0  0  0  0
    5.5981    0.3030    0.0000 C   0  0  0  0  0  0  0  0  0  0  0  0
    6.4641    0.8030    0.0000 C   0  0  0  0  0  0  0  0  0  0  0  0
    5.5981   -0.6970    0.0000 C   0  0  0  0  0  0  0  0  0  0  0  0
    7.3301    0.3030    0.0000 C   0  0  0  0  0  0  0  0  0  0  0  0
    7.3301   -0.6970    0.0000 C   0  0  0  0  0  0  0  0  0  0  0  0
    6.4641   -1.1970    0.0000 C   0  0  0  0  0  0  0  0  0  0  0  0
    8.2764   -1.0018    0.0000 C   0  0  0  0  0  0  0  0  0  0  0  0
    8.8600   -0.1970    0.0000 C   0  0  0  0  0  0  0  0  0  0  0  0
    2.8395    0.4018    0.0000 H   0  0  0  0  0  0  0  0  0  0  0  0
    1.8923    0.4136    0.0000 H   0  0  0  0  0  0  0  0  0  0  0  0
    1.4174   -0.4091    0.0000 H   0  0  0  0  0  0  0  0  0  0  0  0
    2.0250   -1.4616    0.0000 H   0  0  0  0  0  0  0  0  0  0  0  0
    2.9750   -1.4616    0.0000 H   0  0  0  0  0  0  0  0  0  0  0  0
    3.5560    0.8399    0.0000 H   0  0  0  0  0  0  0  0  0  0  0  0
    4.1760   -0.2340    0.0000 H   0  0  0  0  0  0  0  0  0  0  0  0
    5.1306    1.2779    0.0000 H   0  0  0  0  0  0  0  0  0  0  0  0
    4.3335    1.2779    0.0000 H   0  0  0  0  0  0  0  0  0  0  0  0
    6.4641    1.4230    0.0000 H   0  0  0  0  0  0  0  0  0  0  0  0
    5.0611   -1.0070    0.0000 H   0  0  0  0  0  0  0  0  0  0  0  0
    6.4641   -1.8170    0.0000 H   0  0  0  0  0  0  0  0  0  0  0  0
    8.4690    1.1970    0.0000 H   0  0  0  0  0  0  0  0  0  0  0  0
    8.4690   -1.5911    0.0000 H   0  0  0  0  0  0  0  0  0  0  0  0
    9.4800   -0.1970    0.0000 H   0  0  0  0  0  0  0  0  0  0  0  0
  1  3  1  0  0  0  0
  1  6  1  0  0  0  0
  1 20  1  0  0  0  0
  1 21  1  0  0  0  0
  2 10  1  0  0  0  0
  2 14  1  0  0  0  0
  2 27  1  0  0  0  0
  3  4  1  0  0  0  0
  3  5  1  0  0  0  0
  3 15  1  0  0  0  0
  4  5  1  0  0  0  0
  4 16  1  0  0  0  0
  4 17  1  0  0  0  0
  5 18  1  0  0  0  0
  5 19  1  0  0  0  0
  6  7  1  0  0  0  0
  6 22  1  0  0  0  0
  6 23  1  0  0  0  0
  7  8  2  0  0  0  0
  7  9  1  0  0  0  0
  8 10  1  0  0  0  0
  8 24  1  0  0  0  0
  9 12  2  0  0  0  0
  9 25  1  0  0  0  0
 10 11  2  0  0  0  0
 11 12  1  0  0  0  0
 11 13  1  0  0  0  0
 12 26  1  0  0  0  0
 13 14  2  0  0  0  0
 13 28  1  0  0  0  0
 14 29  1  0  0  0  0
M  CHG  1   1   1
M  END
> <PUBCHEM_COMPOUND_CID>
33754758

> <PUBCHEM_COMPOUND_CANONICALIZED>
1

> <PUBCHEM_CACTVS_COMPLEXITY>
201

> <PUBCHEM_CACTVS_HBOND_ACCEPTOR>
0

> <PUBCHEM_CACTVS_HBOND_DONOR>
2

> <PUBCHEM_CACTVS_ROTATABLE_BOND>
3

> <PUBCHEM_CACTVS_SUBSKEYS>
AAADccBzAAAAAAAAAAAAAAAAGAAAAWAAAAAwAAAAAAAAAFgB8AAAHAAQAAAADCjBHgQ8wPLJkACgAzRnRACCgCAxAiAI2aA4ZJgIIOLAkZGEIAhgkADIyAcQgMAOQAAAQAACAACAAACAAAQAAAAAAAAAAA==

> <PUBCHEM_IUPAC_OPENEYE_NAME>
cyclopropyl(1H-indol-6-ylmethyl)ammonium

> <PUBCHEM_IUPAC_CAS_NAME>
cyclopropyl(1H-indol-6-ylmethyl)ammonium

> <PUBCHEM_IUPAC_NAME>
cyclopropyl(1H-indol-6-ylmethyl)azanium

> <PUBCHEM_IUPAC_SYSTEMATIC_NAME>
cyclopropyl(1H-indol-6-ylmethyl)azanium

> <PUBCHEM_IUPAC_TRADITIONAL_NAME>
cyclopropyl(1H-indol-6-ylmethyl)ammonium

> <PUBCHEM_IUPAC_INCHI>
InChI=1S/C12H14N2/c1-2-10-5-6-13-12(10)7-9(1)8-14-11-3-4-11/h1-2,5-7,11,13-14H,3-4,8H2/p+1

> <PUBCHEM_IUPAC_INCHIKEY>
JSZLENRSYZZTSC-UHFFFAOYSA-O

> <PUBCHEM_XLOGP3>
2.9

> <PUBCHEM_EXACT_MASS>
187.123523

> <PUBCHEM_MOLECULAR_FORMULA>
C12H15N2+

> <PUBCHEM_MOLECULAR_WEIGHT>
187.2609

> <PUBCHEM_OPENEYE_CAN_SMILES>
C1CC1[NH2+]CC2=CC3=C(C=C2)C=CN3

> <PUBCHEM_OPENEYE_ISO_SMILES>
C1CC1[NH2+]CC2=CC3=C(C=C2)C=CN3

> <PUBCHEM_CACTVS_TPSA>
32.4

> <PUBCHEM_MONOISOTOPIC_WEIGHT>
187.123523

> <PUBCHEM_TOTAL_CHARGE>
1

> <PUBCHEM_HEAVY_ATOM_COUNT>
14

> <PUBCHEM_ATOM_DEF_STEREO_COUNT>
0

> <PUBCHEM_ATOM_UDEF_STEREO_COUNT>
0

> <PUBCHEM_BOND_DEF_STEREO_COUNT>
0

> <PUBCHEM_BOND_UDEF_STEREO_COUNT>
0

> <PUBCHEM_ISOTOPIC_ATOM_COUNT>
0

> <PUBCHEM_COMPONENT_COUNT>
1

> <PUBCHEM_CACTVS_TAUTO_COUNT>
1

> <PUBCHEM_COORDINATE_TYPE>
1
5
255

> <PUBCHEM_BONDANNOTATIONS>
10  11  8
11  12  8
11  13  8
13  14  8
2  10  8
2  14  8
7  8  8
7  9  8
8  10  8
9  12  8

$$$$
33754759
  -OEChem-12041211462D

 28 30  0     0  0  0  0  0  0999 V2000
    3.8660    0.0670    0.0000 N   0  0  0  0  0  0  0  0  0  0  0  0
    8.2764    0.3717    0.0000 N   0  0  0  0  0  0  0  0  0  0  0  0
    3.0000    0.5670    0.0000 C   0  0  0  0  0  0  0  0  0  0  0  0
    2.5000    1.4330    0.0000 C   0  0  0  0  0  0  0  0  0  0  0  0
    2.0000    0.5670    0.0000 C   0  0  0  0  0  0  0  0  0  0  0  0
    4.7320    0.5670    0.0000 C   0  0  0  0  0  0  0  0  0  0  0  0
    5.5981    0.0670    0.0000 C   0  0  0  0  0  0  0  0  0  0  0  0
    6.4641    0.5670    0.0000 C   0  0  0  0  0  0  0  0  0  0  0  0
    7.3301    0.0670    0.0000 C   0  0  0  0  0  0  0  0  0  0  0  0
    5.5981   -0.9330    0.0000 C   0  0  0  0  0  0  0  0  0  0  0  0
    7.3301   -0.9330    0.0000 C   0  0  0  0  0  0  0  0  0  0  0  0
    6.4641   -1.4330    0.0000 C   0  0  0  0  0  0  0  0  0  0  0  0
    8.2764   -1.2377    0.0000 C   0  0  0  0  0  0  0  0  0  0  0  0
    8.8600   -0.4330    0.0000 C   0  0  0  0  0  0  0  0  0  0  0  0
    2.8395   -0.0319    0.0000 H   0  0  0  0  0  0  0  0  0  0  0  0
    2.9750    1.8315    0.0000 H   0  0  0  0  0  0  0  0  0  0  0  0
    2.0250    1.8315    0.0000 H   0  0  0  0  0  0  0  0  0  0  0  0
    1.4174    0.7790    0.0000 H   0  0  0  0  0  0  0  0  0  0  0  0
    1.8923   -0.0436    0.0000 H   0  0  0  0  0  0  0  0  0  0  0  0
    3.8660   -0.5530    0.0000 H   0  0  0  0  0  0  0  0  0  0  0  0
    5.1306    1.0419    0.0000 H   0  0  0  0  0  0  0  0  0  0  0  0
    4.3335    1.0419    0.0000 H   0  0  0  0  0  0  0  0  0  0  0  0
    6.4641    1.1870    0.0000 H   0  0  0  0  0  0  0  0  0  0  0  0
    5.0611   -1.2430    0.0000 H   0  0  0  0  0  0  0  0  0  0  0  0
    6.4641   -2.0530    0.0000 H   0  0  0  0  0  0  0  0  0  0  0  0
    8.4690    0.9610    0.0000 H   0  0  0  0  0  0  0  0  0  0  0  0
    8.4690   -1.8271    0.0000 H   0  0  0  0  0  0  0  0  0  0  0  0
    9.4800   -0.4330    0.0000 H   0  0  0  0  0  0  0  0  0  0  0  0
  1  3  1  0  0  0  0
  1  6  1  0  0  0  0
  1 20  1  0  0  0  0
  2  9  1  0  0  0  0
  2 14  1  0  0  0  0
  2 26  1  0  0  0  0
  3  4  1  0  0  0  0
  3  5  1  0  0  0  0
  3 15  1  0  0  0  0
  4  5  1  0  0  0  0
  4 16  1  0  0  0  0
  4 17  1  0  0  0  0
  5 18  1  0  0  0  0
  5 19  1  0  0  0  0
  6  7  1  0  0  0  0
  6 21  1  0  0  0  0
  6 22  1  0  0  0  0
  7  8  2  0  0  0  0
  7 10  1  0  0  0  0
  8  9  1  0  0  0  0
  8 23  1  0  0  0  0
  9 11  2  0  0  0  0
 10 12  2  0  0  0  0
 10 24  1  0  0  0  0
 11 12  1  0  0  0  0
 11 13  1  0  0  0  0
 12 25  1  0  0  0  0
 13 14  2  0  0  0  0
 13 27  1  0  0  0  0
 14 28  1  0  0  0  0
M  END
> <PUBCHEM_COMPOUND_CID>
33754759

> <PUBCHEM_COMPOUND_CANONICALIZED>
1

> <PUBCHEM_CACTVS_COMPLEXITY>
201

> <PUBCHEM_CACTVS_HBOND_ACCEPTOR>
1

> <PUBCHEM_CACTVS_HBOND_DONOR>
2

> <PUBCHEM_CACTVS_ROTATABLE_BOND>
3

> <PUBCHEM_CACTVS_SUBSKEYS>
AAADccBzAAAAAAAAAAAAAAAAGAAAAWAAAAAwAAAAAAAAAFgB8AAAHAAQAAAADCjBHgQ8wPLJkACgAzRnRACCgCAxAiAI2aA4ZJgIIOLAkZGEIAhgkADIyAcQgMAOQAAAQAACAACAAACAAAQAAAAAAAAAAA==

> <PUBCHEM_IUPAC_OPENEYE_NAME>
N-(1H-indol-6-ylmethyl)cyclopropanamine

> <PUBCHEM_IUPAC_CAS_NAME>
N-(1H-indol-6-ylmethyl)cyclopropanamine

> <PUBCHEM_IUPAC_NAME>
N-(1H-indol-6-ylmethyl)cyclopropanamine

> <PUBCHEM_IUPAC_SYSTEMATIC_NAME>
N-(1H-indol-6-ylmethyl)cyclopropanamine

> <PUBCHEM_IUPAC_TRADITIONAL_NAME>
cyclopropyl(1H-indol-6-ylmethyl)amine

> <PUBCHEM_IUPAC_INCHI>
InChI=1S/C12H14N2/c1-2-10-5-6-13-12(10)7-9(1)8-14-11-3-4-11/h1-2,5-7,11,13-14H,3-4,8H2

> <PUBCHEM_IUPAC_INCHIKEY>
JSZLENRSYZZTSC-UHFFFAOYSA-N

> <PUBCHEM_XLOGP3>
2.9

> <PUBCHEM_EXACT_MASS>
186.115698

> <PUBCHEM_MOLECULAR_FORMULA>
C12H14N2

> <PUBCHEM_MOLECULAR_WEIGHT>
186.25296

> <PUBCHEM_OPENEYE_CAN_SMILES>
C1CC1NCC2=CC3=C(C=C2)C=CN3

> <PUBCHEM_OPENEYE_ISO_SMILES>
C1CC1NCC2=CC3=C(C=C2)C=CN3

> <PUBCHEM_CACTVS_TPSA>
27.8

> <PUBCHEM_MONOISOTOPIC_WEIGHT>
186.115698

> <PUBCHEM_TOTAL_CHARGE>
0

> <PUBCHEM_HEAVY_ATOM_COUNT>
14

> <PUBCHEM_ATOM_DEF_STEREO_COUNT>
0

> <PUBCHEM_ATOM_UDEF_STEREO_COUNT>
0

> <PUBCHEM_BOND_DEF_STEREO_COUNT>
0

> <PUBCHEM_BOND_UDEF_STEREO_COUNT>
0

> <PUBCHEM_ISOTOPIC_ATOM_COUNT>
0

> <PUBCHEM_COMPONENT_COUNT>
1

> <PUBCHEM_CACTVS_TAUTO_COUNT>
1

> <PUBCHEM_COORDINATE_TYPE>
1
5
255

> <PUBCHEM_BONDANNOTATIONS>
10  12  8
11  12  8
11  13  8
13  14  8
2  14  8
2  9  8
7  10  8
7  8  8
8  9  8
9  11  8

$$$$
