55716276
  -OEChem-11301218092D

 48 50  0     0  0  0  0  0  0999 V2000
   12.4598    2.9779    0.0000 Br  0  0  0  0  0  0  0  0  0  0  0  0
    5.6103    1.5344    0.0000 O   0  0  0  0  0  0  0  0  0  0  0  0
    7.2566    0.9963    0.0000 N   0  0  0  0  0  0  0  0  0  0  0  0
    4.6783   -2.9267    0.0000 N   0  0  0  0  0  0  0  0  0  0  0  0
    8.5458    2.1530    0.0000 C   0  0  0  0  0  0  0  0  0  0  0  0
    7.5673    1.9468    0.0000 C   0  0  0  0  0  0  0  0  0  0  0  0
    9.5243    2.3592    0.0000 C   0  0  0  0  0  0  0  0  0  0  0  0
    8.3396    3.1315    0.0000 C   0  0  0  0  0  0  0  0  0  0  0  0
    8.7520    1.1745    0.0000 C   0  0  0  0  0  0  0  0  0  0  0  0
    4.9889   -0.3667    0.0000 C   0  0  0  0  0  0  0  0  0  0  0  0
    5.9674   -0.1605    0.0000 C   0  0  0  0  0  0  0  0  0  0  0  0
    4.6783   -1.3172    0.0000 C   0  0  0  0  0  0  0  0  0  0  0  0
    6.2781    0.7901    0.0000 C   0  0  0  0  0  0  0  0  0  0  0  0
    9.8349    3.3098    0.0000 C   0  0  0  0  0  0  0  0  0  0  0  0
   10.1921    1.6149    0.0000 C   0  0  0  0  0  0  0  0  0  0  0  0
    3.7320   -1.6219    0.0000 C   0  0  0  0  0  0  0  0  0  0  0  0
    3.7320   -2.6219    0.0000 C   0  0  0  0  0  0  0  0  0  0  0  0
    5.2619   -2.1219    0.0000 C   0  0  0  0  0  0  0  0  0  0  0  0
   10.8134    3.5160    0.0000 C   0  0  0  0  0  0  0  0  0  0  0  0
   11.1706    1.8212    0.0000 C   0  0  0  0  0  0  0  0  0  0  0  0
    2.8660   -1.1219    0.0000 C   0  0  0  0  0  0  0  0  0  0  0  0
   11.4813    2.7717    0.0000 C   0  0  0  0  0  0  0  0  0  0  0  0
    2.8660   -3.1219    0.0000 C   0  0  0  0  0  0  0  0  0  0  0  0
    2.0000   -1.6219    0.0000 C   0  0  0  0  0  0  0  0  0  0  0  0
    2.0000   -2.6219    0.0000 C   0  0  0  0  0  0  0  0  0  0  0  0
    7.5467    2.5665    0.0000 H   0  0  0  0  0  0  0  0  0  0  0  0
    6.9534    2.0342    0.0000 H   0  0  0  0  0  0  0  0  0  0  0  0
    8.9462    3.2594    0.0000 H   0  0  0  0  0  0  0  0  0  0  0  0
    8.1453    1.0467    0.0000 H   0  0  0  0  0  0  0  0  0  0  0  0
    8.8798    0.5678    0.0000 H   0  0  0  0  0  0  0  0  0  0  0  0
    9.3587    1.3024    0.0000 H   0  0  0  0  0  0  0  0  0  0  0  0
    8.2117    3.7382    0.0000 H   0  0  0  0  0  0  0  0  0  0  0  0
    7.7329    3.0037    0.0000 H   0  0  0  0  0  0  0  0  0  0  0  0
    7.6707    0.5348    0.0000 H   0  0  0  0  0  0  0  0  0  0  0  0
    4.9684    0.2530    0.0000 H   0  0  0  0  0  0  0  0  0  0  0  0
    4.3751   -0.2793    0.0000 H   0  0  0  0  0  0  0  0  0  0  0  0
    5.9880   -0.7801    0.0000 H   0  0  0  0  0  0  0  0  0  0  0  0
    6.5812   -0.2478    0.0000 H   0  0  0  0  0  0  0  0  0  0  0  0
    9.4209    3.7712    0.0000 H   0  0  0  0  0  0  0  0  0  0  0  0
    9.9995    1.0256    0.0000 H   0  0  0  0  0  0  0  0  0  0  0  0
    5.8819   -2.1219    0.0000 H   0  0  0  0  0  0  0  0  0  0  0  0
   11.0061    4.1053    0.0000 H   0  0  0  0  0  0  0  0  0  0  0  0
   11.5847    1.3597    0.0000 H   0  0  0  0  0  0  0  0  0  0  0  0
    4.8709   -3.5160    0.0000 H   0  0  0  0  0  0  0  0  0  0  0  0
    2.8660   -0.5019    0.0000 H   0  0  0  0  0  0  0  0  0  0  0  0
    2.8660   -3.7419    0.0000 H   0  0  0  0  0  0  0  0  0  0  0  0
    1.4631   -1.3119    0.0000 H   0  0  0  0  0  0  0  0  0  0  0  0
    1.4631   -2.9319    0.0000 H   0  0  0  0  0  0  0  0  0  0  0  0
  1 22  1  0  0  0  0
  2 13  2  0  0  0  0
  3  6  1  0  0  0  0
  3 13  1  0  0  0  0
  3 34  1  0  0  0  0
  4 17  1  0  0  0  0
  4 18  1  0  0  0  0
  4 44  1  0  0  0  0
  5  6  1  0  0  0  0
  5  7  1  0  0  0  0
  5  8  1  0  0  0  0
  5  9  1  0  0  0  0
  6 26  1  0  0  0  0
  6 27  1  0  0  0  0
  7 14  2  0  0  0  0
  7 15  1  0  0  0  0
  8 28  1  0  0  0  0
  8 32  1  0  0  0  0
  8 33  1  0  0  0  0
  9 29  1  0  0  0  0
  9 30  1  0  0  0  0
  9 31  1  0  0  0  0
 10 11  1  0  0  0  0
 10 12  1  0  0  0  0
 10 35  1  0  0  0  0
 10 36  1  0  0  0  0
 11 13  1  0  0  0  0
 11 37  1  0  0  0  0
 11 38  1  0  0  0  0
 12 16  1  0  0  0  0
 12 18  2  0  0  0  0
 14 19  1  0  0  0  0
 14 39  1  0  0  0  0
 15 20  2  0  0  0  0
 15 40  1  0  0  0  0
 16 17  1  0  0  0  0
 16 21  2  0  0  0  0
 17 23  2  0  0  0  0
 18 41  1  0  0  0  0
 19 22  2  0  0  0  0
 19 42  1  0  0  0  0
 20 22  1  0  0  0  0
 20 43  1  0  0  0  0
 21 24  1  0  0  0  0
 21 45  1  0  0  0  0
 23 25  1  0  0  0  0
 23 46  1  0  0  0  0
 24 25  2  0  0  0  0
 24 47  1  0  0  0  0
 25 48  1  0  0  0  0
M  END
> <PUBCHEM_COMPOUND_CID>
55716276

> <PUBCHEM_COMPOUND_CANONICALIZED>
1

> <PUBCHEM_CACTVS_COMPLEXITY>
445

> <PUBCHEM_CACTVS_HBOND_ACCEPTOR>
1

> <PUBCHEM_CACTVS_HBOND_DONOR>
2

> <PUBCHEM_CACTVS_ROTATABLE_BOND>
6

> <PUBCHEM_CACTVS_SUBSKEYS>
AAADceB7IAAAEAAAAAAAAAAAAAAAAWAAAAAwYAAAAAAAAFgB9AAAHgBQAAABrgjBngQ+wPLJkACoAzV3VACCgCAxAiQI2aE4ZLgIIPLAkZGEIAhglgDIyhcYicCPggAAAAACAAAEAAAAAAQAAAAAAAAAAA==

> <PUBCHEM_IUPAC_OPENEYE_NAME>
N-[2-(4-bromophenyl)-2-methyl-propyl]-3-(1H-indol-3-yl)propanamide

> <PUBCHEM_IUPAC_CAS_NAME>
N-[2-(4-bromophenyl)-2-methylpropyl]-3-(1H-indol-3-yl)propanamide

> <PUBCHEM_IUPAC_NAME>
N-[2-(4-bromophenyl)-2-methylpropyl]-3-(1H-indol-3-yl)propanamide

> <PUBCHEM_IUPAC_SYSTEMATIC_NAME>
N-[2-(4-bromophenyl)-2-methyl-propyl]-3-(1H-indol-3-yl)propanamide

> <PUBCHEM_IUPAC_TRADITIONAL_NAME>
N-[2-(4-bromophenyl)-2-methyl-propyl]-3-(1H-indol-3-yl)propionamide

> <PUBCHEM_IUPAC_INCHI>
InChI=1S/C21H23BrN2O/c1-21(2,16-8-10-17(22)11-9-16)14-24-20(25)12-7-15-13-23-19-6-4-3-5-18(15)19/h3-6,8-11,13,23H,7,12,14H2,1-2H3,(H,24,25)

> <PUBCHEM_IUPAC_INCHIKEY>
IWUDFEYCCLYWEA-UHFFFAOYSA-N

> <PUBCHEM_XLOGP3>
5

> <PUBCHEM_EXACT_MASS>
398.099375

> <PUBCHEM_MOLECULAR_FORMULA>
C21H23BrN2O

> <PUBCHEM_MOLECULAR_WEIGHT>
399.32412

> <PUBCHEM_OPENEYE_CAN_SMILES>
CC(C)(CNC(=O)CCC1=CNC2=CC=CC=C21)C3=CC=C(C=C3)Br

> <PUBCHEM_OPENEYE_ISO_SMILES>
CC(C)(CNC(=O)CCC1=CNC2=CC=CC=C21)C3=CC=C(C=C3)Br

> <PUBCHEM_CACTVS_TPSA>
44.9

> <PUBCHEM_MONOISOTOPIC_WEIGHT>
398.099375

> <PUBCHEM_TOTAL_CHARGE>
0

> <PUBCHEM_HEAVY_ATOM_COUNT>
25

> <PUBCHEM_ATOM_DEF_STEREO_COUNT>
0

> <PUBCHEM_ATOM_UDEF_STEREO_COUNT>
0

> <PUBCHEM_BOND_DEF_STEREO_COUNT>
0

> <PUBCHEM_BOND_UDEF_STEREO_COUNT>
0

> <PUBCHEM_ISOTOPIC_ATOM_COUNT>
0

> <PUBCHEM_COMPONENT_COUNT>
1

> <PUBCHEM_CACTVS_TAUTO_COUNT>
2

> <PUBCHEM_COORDINATE_TYPE>
1
5
255

> <PUBCHEM_BONDANNOTATIONS>
12  16  8
12  18  8
14  19  8
15  20  8
16  17  8
16  21  8
17  23  8
19  22  8
20  22  8
21  24  8
23  25  8
24  25  8
4  17  8
4  18  8
7  14  8
7  15  8

$$$$
