6736151
  -OEChem-05231304242D

 45 47  0     0  0  0  0  0  0999 V2000
    6.7619    1.7204    0.0000 O   0  0  0  0  0  0  0  0  0  0  0  0
    4.6783    1.6592    0.0000 N   0  0  0  0  0  0  0  0  0  0  0  0
    6.7619   -0.0116    0.0000 N   0  0  0  0  0  0  0  0  0  0  0  0
    8.2619   -0.8776    0.0000 C   0  0  0  0  0  0  0  0  0  0  0  0
    9.2619   -0.8776    0.0000 C   0  0  0  0  0  0  0  0  0  0  0  0
    7.7619   -0.0116    0.0000 C   0  0  0  0  0  0  0  0  0  0  0  0
    9.7619   -1.7436    0.0000 C   0  0  0  0  0  0  0  0  0  0  0  0
    5.2619    0.8544    0.0000 C   0  0  0  0  0  0  0  0  0  0  0  0
    3.7320    1.3544    0.0000 C   0  0  0  0  0  0  0  0  0  0  0  0
    3.7320    0.3544    0.0000 C   0  0  0  0  0  0  0  0  0  0  0  0
    4.6783    0.0497    0.0000 C   0  0  0  0  0  0  0  0  0  0  0  0
    6.2619    0.8544    0.0000 C   0  0  0  0  0  0  0  0  0  0  0  0
   10.7619   -1.7436    0.0000 C   0  0  0  0  0  0  0  0  0  0  0  0
    4.9889    2.6097    0.0000 C   0  0  0  0  0  0  0  0  0  0  0  0
    2.8660    1.8544    0.0000 C   0  0  0  0  0  0  0  0  0  0  0  0
    2.8660   -0.1456    0.0000 C   0  0  0  0  0  0  0  0  0  0  0  0
    2.0000    1.3544    0.0000 C   0  0  0  0  0  0  0  0  0  0  0  0
    2.0000    0.3544    0.0000 C   0  0  0  0  0  0  0  0  0  0  0  0
   11.2619   -2.6097    0.0000 C   0  0  0  0  0  0  0  0  0  0  0  0
   11.2619   -0.8776    0.0000 C   0  0  0  0  0  0  0  0  0  0  0  0
   12.2619   -2.6097    0.0000 C   0  0  0  0  0  0  0  0  0  0  0  0
   12.2619   -0.8776    0.0000 C   0  0  0  0  0  0  0  0  0  0  0  0
   12.7619   -1.7436    0.0000 C   0  0  0  0  0  0  0  0  0  0  0  0
    7.6793   -1.0897    0.0000 H   0  0  0  0  0  0  0  0  0  0  0  0
    8.3695   -1.4882    0.0000 H   0  0  0  0  0  0  0  0  0  0  0  0
    9.8445   -0.6656    0.0000 H   0  0  0  0  0  0  0  0  0  0  0  0
    9.1542   -0.2670    0.0000 H   0  0  0  0  0  0  0  0  0  0  0  0
    8.3445    0.2005    0.0000 H   0  0  0  0  0  0  0  0  0  0  0  0
    7.6542    0.5990    0.0000 H   0  0  0  0  0  0  0  0  0  0  0  0
    9.1793   -1.9557    0.0000 H   0  0  0  0  0  0  0  0  0  0  0  0
    9.8695   -2.3542    0.0000 H   0  0  0  0  0  0  0  0  0  0  0  0
    4.8709   -0.5396    0.0000 H   0  0  0  0  0  0  0  0  0  0  0  0
    6.4519   -0.5485    0.0000 H   0  0  0  0  0  0  0  0  0  0  0  0
    5.5783    2.4171    0.0000 H   0  0  0  0  0  0  0  0  0  0  0  0
    5.1815    3.1990    0.0000 H   0  0  0  0  0  0  0  0  0  0  0  0
    4.3996    2.8023    0.0000 H   0  0  0  0  0  0  0  0  0  0  0  0
    2.8660    2.4744    0.0000 H   0  0  0  0  0  0  0  0  0  0  0  0
    2.8660   -0.7656    0.0000 H   0  0  0  0  0  0  0  0  0  0  0  0
    1.4631    1.6644    0.0000 H   0  0  0  0  0  0  0  0  0  0  0  0
    1.4631    0.0444    0.0000 H   0  0  0  0  0  0  0  0  0  0  0  0
   10.9519   -3.1466    0.0000 H   0  0  0  0  0  0  0  0  0  0  0  0
   10.9519   -0.3407    0.0000 H   0  0  0  0  0  0  0  0  0  0  0  0
   12.5719   -3.1466    0.0000 H   0  0  0  0  0  0  0  0  0  0  0  0
   12.5719   -0.3407    0.0000 H   0  0  0  0  0  0  0  0  0  0  0  0
   13.3819   -1.7436    0.0000 H   0  0  0  0  0  0  0  0  0  0  0  0
  1 12  2  0  0  0  0
  2  8  1  0  0  0  0
  2  9  1  0  0  0  0
  2 14  1  0  0  0  0
  3  6  1  0  0  0  0
  3 12  1  0  0  0  0
  3 33  1  0  0  0  0
  4  5  1  0  0  0  0
  4  6  1  0  0  0  0
  4 24  1  0  0  0  0
  4 25  1  0  0  0  0
  5  7  1  0  0  0  0
  5 26  1  0  0  0  0
  5 27  1  0  0  0  0
  6 28  1  0  0  0  0
  6 29  1  0  0  0  0
  7 13  1  0  0  0  0
  7 30  1  0  0  0  0
  7 31  1  0  0  0  0
  8 11  2  0  0  0  0
  8 12  1  0  0  0  0
  9 10  1  0  0  0  0
  9 15  2  0  0  0  0
 10 11  1  0  0  0  0
 10 16  2  0  0  0  0
 11 32  1  0  0  0  0
 13 19  2  0  0  0  0
 13 20  1  0  0  0  0
 14 34  1  0  0  0  0
 14 35  1  0  0  0  0
 14 36  1  0  0  0  0
 15 17  1  0  0  0  0
 15 37  1  0  0  0  0
 16 18  1  0  0  0  0
 16 38  1  0  0  0  0
 17 18  2  0  0  0  0
 17 39  1  0  0  0  0
 18 40  1  0  0  0  0
 19 21  1  0  0  0  0
 19 41  1  0  0  0  0
 20 22  2  0  0  0  0
 20 42  1  0  0  0  0
 21 23  2  0  0  0  0
 21 43  1  0  0  0  0
 22 23  1  0  0  0  0
 22 44  1  0  0  0  0
 23 45  1  0  0  0  0
M  END
> <PUBCHEM_COMPOUND_CID>
6736151

> <PUBCHEM_COMPOUND_CANONICALIZED>
1

> <PUBCHEM_CACTVS_COMPLEXITY>
378

> <PUBCHEM_CACTVS_HBOND_ACCEPTOR>
1

> <PUBCHEM_CACTVS_HBOND_DONOR>
1

> <PUBCHEM_CACTVS_ROTATABLE_BOND>
6

> <PUBCHEM_CACTVS_SUBSKEYS>
AAADceB7IAAAAAAAAAAAAAAAAAAAAWAAAAAwYAAAAAAAAFgB9AAAHgAQAAAADAjBngQywPPMEACoAyVyVACCgCAnAiAI2KG4ZNgIYPLAlbGUIQhglgDIyYcYiYCeAAAAAAACAAAAAAAAAAQAAAAAAAAAAA==

> <PUBCHEM_IUPAC_OPENEYE_NAME>
1-methyl-N-(4-phenylbutyl)indole-2-carboxamide

> <PUBCHEM_IUPAC_CAS_NAME>
1-methyl-N-(4-phenylbutyl)-2-indolecarboxamide

> <PUBCHEM_IUPAC_NAME>
1-methyl-N-(4-phenylbutyl)indole-2-carboxamide

> <PUBCHEM_IUPAC_SYSTEMATIC_NAME>
1-methyl-N-(4-phenylbutyl)indole-2-carboxamide

> <PUBCHEM_IUPAC_TRADITIONAL_NAME>
1-methyl-N-(4-phenylbutyl)indole-2-carboxamide

> <PUBCHEM_IUPAC_INCHI>
InChI=1S/C20H22N2O/c1-22-18-13-6-5-12-17(18)15-19(22)20(23)21-14-8-7-11-16-9-3-2-4-10-16/h2-6,9-10,12-13,15H,7-8,11,14H2,1H3,(H,21,23)

> <PUBCHEM_IUPAC_INCHIKEY>
ABAOQOYBODNDLZ-UHFFFAOYSA-N

> <PUBCHEM_XLOGP3>
4.4

> <PUBCHEM_EXACT_MASS>
306.173213

> <PUBCHEM_MOLECULAR_FORMULA>
C20H22N2O

> <PUBCHEM_MOLECULAR_WEIGHT>
306.40148

> <PUBCHEM_OPENEYE_CAN_SMILES>
CN1C2=CC=CC=C2C=C1C(=O)NCCCCC3=CC=CC=C3

> <PUBCHEM_OPENEYE_ISO_SMILES>
CN1C2=CC=CC=C2C=C1C(=O)NCCCCC3=CC=CC=C3

> <PUBCHEM_CACTVS_TPSA>
34

> <PUBCHEM_MONOISOTOPIC_WEIGHT>
306.173213

> <PUBCHEM_TOTAL_CHARGE>
0

> <PUBCHEM_HEAVY_ATOM_COUNT>
23

> <PUBCHEM_ATOM_DEF_STEREO_COUNT>
0

> <PUBCHEM_ATOM_UDEF_STEREO_COUNT>
0

> <PUBCHEM_BOND_DEF_STEREO_COUNT>
0

> <PUBCHEM_BOND_UDEF_STEREO_COUNT>
0

> <PUBCHEM_ISOTOPIC_ATOM_COUNT>
0

> <PUBCHEM_COMPONENT_COUNT>
1

> <PUBCHEM_CACTVS_TAUTO_COUNT>
2

> <PUBCHEM_COORDINATE_TYPE>
1
5
255

> <PUBCHEM_BONDANNOTATIONS>
10  11  8
10  16  8
13  19  8
13  20  8
15  17  8
16  18  8
17  18  8
19  21  8
2  8  8
2  9  8
20  22  8
21  23  8
22  23  8
8  11  8
9  10  8
9  15  8

$$$$
