65376416
  -OEChem-10251221432D

 32 34  0     0  0  0  0  0  0999 V2000
    4.3660   -2.6334    0.0000 N   0  0  0  0  0  0  0  0  0  0  0  0
    3.3660   -0.9013    0.0000 C   0  0  0  0  0  0  0  0  0  0  0  0
    2.8660   -0.0353    0.0000 C   0  0  0  0  0  0  0  0  0  0  0  0
    2.5000   -1.4013    0.0000 C   0  0  0  0  0  0  0  0  0  0  0  0
    2.0000   -0.5353    0.0000 C   0  0  0  0  0  0  0  0  0  0  0  0
    4.2320   -0.4013    0.0000 C   0  0  0  0  0  0  0  0  0  0  0  0
    4.2320    0.5987    0.0000 C   0  0  0  0  0  0  0  0  0  0  0  0
    3.8660   -1.7673    0.0000 C   0  0  0  0  0  0  0  0  0  0  0  0
    5.0981    1.0987    0.0000 C   0  0  0  0  0  0  0  0  0  0  0  0
    3.3660    1.0987    0.0000 C   0  0  0  0  0  0  0  0  0  0  0  0
    5.0981    2.0987    0.0000 C   0  0  0  0  0  0  0  0  0  0  0  0
    5.9920    0.5640    0.0000 C   0  0  0  0  0  0  0  0  0  0  0  0
    3.3660    2.0987    0.0000 C   0  0  0  0  0  0  0  0  0  0  0  0
    4.2320    2.5987    0.0000 C   0  0  0  0  0  0  0  0  0  0  0  0
    5.9920    2.6334    0.0000 C   0  0  0  0  0  0  0  0  0  0  0  0
    6.8981    1.0779    0.0000 C   0  0  0  0  0  0  0  0  0  0  0  0
    6.8981    2.1195    0.0000 C   0  0  0  0  0  0  0  0  0  0  0  0
    3.4030    0.2747    0.0000 H   0  0  0  0  0  0  0  0  0  0  0  0
    2.5560    0.5017    0.0000 H   0  0  0  0  0  0  0  0  0  0  0  0
    1.9631   -1.7113    0.0000 H   0  0  0  0  0  0  0  0  0  0  0  0
    2.8100   -1.9382    0.0000 H   0  0  0  0  0  0  0  0  0  0  0  0
    1.6900    0.0017    0.0000 H   0  0  0  0  0  0  0  0  0  0  0  0
    1.4631   -0.8453    0.0000 H   0  0  0  0  0  0  0  0  0  0  0  0
    4.4441   -0.9839    0.0000 H   0  0  0  0  0  0  0  0  0  0  0  0
    4.8426   -0.2936    0.0000 H   0  0  0  0  0  0  0  0  0  0  0  0
    2.8291    0.7887    0.0000 H   0  0  0  0  0  0  0  0  0  0  0  0
    5.9848   -0.0559    0.0000 H   0  0  0  0  0  0  0  0  0  0  0  0
    2.8291    2.4087    0.0000 H   0  0  0  0  0  0  0  0  0  0  0  0
    4.2320    3.2187    0.0000 H   0  0  0  0  0  0  0  0  0  0  0  0
    5.9848    3.2533    0.0000 H   0  0  0  0  0  0  0  0  0  0  0  0
    7.4338    0.7658    0.0000 H   0  0  0  0  0  0  0  0  0  0  0  0
    7.4338    2.4316    0.0000 H   0  0  0  0  0  0  0  0  0  0  0  0
  1  8  3  0  0  0  0
  2  3  1  0  0  0  0
  2  4  1  0  0  0  0
  2  6  1  0  0  0  0
  2  8  1  0  0  0  0
  3  5  1  0  0  0  0
  3 18  1  0  0  0  0
  3 19  1  0  0  0  0
  4  5  1  0  0  0  0
  4 20  1  0  0  0  0
  4 21  1  0  0  0  0
  5 22  1  0  0  0  0
  5 23  1  0  0  0  0
  6  7  1  0  0  0  0
  6 24  1  0  0  0  0
  6 25  1  0  0  0  0
  7  9  1  0  0  0  0
  7 10  2  0  0  0  0
  9 11  1  0  0  0  0
  9 12  2  0  0  0  0
 10 13  1  0  0  0  0
 10 26  1  0  0  0  0
 11 14  1  0  0  0  0
 11 15  2  0  0  0  0
 12 16  1  0  0  0  0
 12 27  1  0  0  0  0
 13 14  2  0  0  0  0
 13 28  1  0  0  0  0
 14 29  1  0  0  0  0
 15 17  1  0  0  0  0
 15 30  1  0  0  0  0
 16 17  2  0  0  0  0
 16 31  1  0  0  0  0
 17 32  1  0  0  0  0
M  END
> <PUBCHEM_COMPOUND_CID>
65376416

> <PUBCHEM_COMPOUND_CANONICALIZED>
1

> <PUBCHEM_CACTVS_COMPLEXITY>
320

> <PUBCHEM_CACTVS_HBOND_ACCEPTOR>
1

> <PUBCHEM_CACTVS_HBOND_DONOR>
0

> <PUBCHEM_CACTVS_ROTATABLE_BOND>
2

> <PUBCHEM_CACTVS_SUBSKEYS>
AAADccB6AAAAAAAAAAAAAAAAAABgAAAAAAAwYAAAAAAAAADBUAAAHAAAAAAADgCBGAAwAMAAAACQBiBCAAACAAAgAAAIiAAAAIgIoCKAERCAIAAggAAIiA8AgMAPgAACAAAQAAAAAAQAACAAAAAAAAAAAA==

> <PUBCHEM_IUPAC_OPENEYE_NAME>
1-(1-naphthylmethyl)cyclobutanecarbonitrile

> <PUBCHEM_IUPAC_CAS_NAME>
1-(1-naphthalenylmethyl)-1-cyclobutanecarbonitrile

> <PUBCHEM_IUPAC_NAME>
1-(naphthalen-1-ylmethyl)cyclobutane-1-carbonitrile

> <PUBCHEM_IUPAC_SYSTEMATIC_NAME>
1-(naphthalen-1-ylmethyl)cyclobutane-1-carbonitrile

> <PUBCHEM_IUPAC_TRADITIONAL_NAME>
1-(1-naphthylmethyl)cyclobutanecarbonitrile

> <PUBCHEM_IUPAC_INCHI>
InChI=1S/C16H15N/c17-12-16(9-4-10-16)11-14-7-3-6-13-5-1-2-8-15(13)14/h1-3,5-8H,4,9-11H2

> <PUBCHEM_IUPAC_INCHIKEY>
BDYLBTWNYPINFN-UHFFFAOYSA-N

> <PUBCHEM_XLOGP3>
4.4

> <PUBCHEM_EXACT_MASS>
221.120449

> <PUBCHEM_MOLECULAR_FORMULA>
C16H15N

> <PUBCHEM_MOLECULAR_WEIGHT>
221.297

> <PUBCHEM_OPENEYE_CAN_SMILES>
C1CC(C1)(CC2=CC=CC3=CC=CC=C32)C#N

> <PUBCHEM_OPENEYE_ISO_SMILES>
C1CC(C1)(CC2=CC=CC3=CC=CC=C32)C#N

> <PUBCHEM_CACTVS_TPSA>
23.8

> <PUBCHEM_MONOISOTOPIC_WEIGHT>
221.120449

> <PUBCHEM_TOTAL_CHARGE>
0

> <PUBCHEM_HEAVY_ATOM_COUNT>
17

> <PUBCHEM_ATOM_DEF_STEREO_COUNT>
0

> <PUBCHEM_ATOM_UDEF_STEREO_COUNT>
0

> <PUBCHEM_BOND_DEF_STEREO_COUNT>
0

> <PUBCHEM_BOND_UDEF_STEREO_COUNT>
0

> <PUBCHEM_ISOTOPIC_ATOM_COUNT>
0

> <PUBCHEM_COMPONENT_COUNT>
1

> <PUBCHEM_CACTVS_TAUTO_COUNT>
1

> <PUBCHEM_COORDINATE_TYPE>
1
5
255

> <PUBCHEM_BONDANNOTATIONS>
10  13  8
11  14  8
11  15  8
12  16  8
13  14  8
15  17  8
16  17  8
7  10  8
7  9  8
9  11  8
9  12  8

$$$$
65377864
  -OEChem-10251221432D

 34 35  0     1  0  0  0  0  0999 V2000
    3.8660   -2.6334    0.0000 N   0  0  0  0  0  0  0  0  0  0  0  0
    2.8660   -0.9013    0.0000 C   0  0  3  0  0  0  0  0  0  0  0  0
    3.7320   -0.4013    0.0000 C   0  0  0  0  0  0  0  0  0  0  0  0
    2.0000   -1.4013    0.0000 C   0  0  0  0  0  0  0  0  0  0  0  0
    3.7320    0.5987    0.0000 C   0  0  0  0  0  0  0  0  0  0  0  0
    2.3660   -0.0353    0.0000 C   0  0  0  0  0  0  0  0  0  0  0  0
    4.5981    1.0987    0.0000 C   0  0  0  0  0  0  0  0  0  0  0  0
    2.0000   -2.4013    0.0000 C   0  0  0  0  0  0  0  0  0  0  0  0
    2.8660    1.0987    0.0000 C   0  0  0  0  0  0  0  0  0  0  0  0
    4.5981    2.0987    0.0000 C   0  0  0  0  0  0  0  0  0  0  0  0
    3.3660   -1.7673    0.0000 C   0  0  0  0  0  0  0  0  0  0  0  0
    5.4920    0.5640    0.0000 C   0  0  0  0  0  0  0  0  0  0  0  0
    2.8660    2.0987    0.0000 C   0  0  0  0  0  0  0  0  0  0  0  0
    3.7320    2.5987    0.0000 C   0  0  0  0  0  0  0  0  0  0  0  0
    5.4920    2.6334    0.0000 C   0  0  0  0  0  0  0  0  0  0  0  0
    6.3981    1.0779    0.0000 C   0  0  0  0  0  0  0  0  0  0  0  0
    6.3981    2.1195    0.0000 C   0  0  0  0  0  0  0  0  0  0  0  0
    3.9441   -0.9839    0.0000 H   0  0  0  0  0  0  0  0  0  0  0  0
    4.3426   -0.2936    0.0000 H   0  0  0  0  0  0  0  0  0  0  0  0
    1.7880   -0.8187    0.0000 H   0  0  0  0  0  0  0  0  0  0  0  0
    1.3894   -1.5090    0.0000 H   0  0  0  0  0  0  0  0  0  0  0  0
    2.9030    0.2747    0.0000 H   0  0  0  0  0  0  0  0  0  0  0  0
    2.0560    0.5017    0.0000 H   0  0  0  0  0  0  0  0  0  0  0  0
    1.8291   -0.3453    0.0000 H   0  0  0  0  0  0  0  0  0  0  0  0
    1.3800   -2.4013    0.0000 H   0  0  0  0  0  0  0  0  0  0  0  0
    2.0000   -3.0213    0.0000 H   0  0  0  0  0  0  0  0  0  0  0  0
    2.6200   -2.4013    0.0000 H   0  0  0  0  0  0  0  0  0  0  0  0
    2.3291    0.7887    0.0000 H   0  0  0  0  0  0  0  0  0  0  0  0
    5.4848   -0.0559    0.0000 H   0  0  0  0  0  0  0  0  0  0  0  0
    3.7320    3.2187    0.0000 H   0  0  0  0  0  0  0  0  0  0  0  0
    2.3291    2.4087    0.0000 H   0  0  0  0  0  0  0  0  0  0  0  0
    5.4848    3.2533    0.0000 H   0  0  0  0  0  0  0  0  0  0  0  0
    6.9338    0.7658    0.0000 H   0  0  0  0  0  0  0  0  0  0  0  0
    6.9338    2.4316    0.0000 H   0  0  0  0  0  0  0  0  0  0  0  0
  1 11  3  0  0  0  0
  2  3  1  0  0  0  0
  2  4  1  0  0  0  0
  2  6  1  0  0  0  0
  2 11  1  0  0  0  0
  3  5  1  0  0  0  0
  3 18  1  0  0  0  0
  3 19  1  0  0  0  0
  4  8  1  0  0  0  0
  4 20  1  0  0  0  0
  4 21  1  0  0  0  0
  5  7  1  0  0  0  0
  5  9  2  0  0  0  0
  6 22  1  0  0  0  0
  6 23  1  0  0  0  0
  6 24  1  0  0  0  0
  7 10  1  0  0  0  0
  7 12  2  0  0  0  0
  8 25  1  0  0  0  0
  8 26  1  0  0  0  0
  8 27  1  0  0  0  0
  9 13  1  0  0  0  0
  9 28  1  0  0  0  0
 10 14  1  0  0  0  0
 10 15  2  0  0  0  0
 12 16  1  0  0  0  0
 12 29  1  0  0  0  0
 13 14  2  0  0  0  0
 13 31  1  0  0  0  0
 14 30  1  0  0  0  0
 15 17  1  0  0  0  0
 15 32  1  0  0  0  0
 16 17  2  0  0  0  0
 16 33  1  0  0  0  0
 17 34  1  0  0  0  0
M  END
> <PUBCHEM_COMPOUND_CID>
65377864

> <PUBCHEM_COMPOUND_CANONICALIZED>
1

> <PUBCHEM_CACTVS_COMPLEXITY>
300

> <PUBCHEM_CACTVS_HBOND_ACCEPTOR>
1

> <PUBCHEM_CACTVS_HBOND_DONOR>
0

> <PUBCHEM_CACTVS_ROTATABLE_BOND>
3

> <PUBCHEM_CACTVS_SUBSKEYS>
AAADceB6AAAAAAAAAAAAAAAAAAAAAAAAAAAwYAAAAAAAAADBUAAAHAAAAAAADgCBGAAyAMAAAACQBiBCAAACAAAgAAAIiAAAAIgIoCKAERCAIAAggAAIiA8AgMAPgAACAAAQAAAAAAQAACAAAAAAAAAAAA==

> <PUBCHEM_IUPAC_OPENEYE_NAME>
2-methyl-2-(1-naphthylmethyl)butanenitrile

> <PUBCHEM_IUPAC_CAS_NAME>
2-methyl-2-(1-naphthalenylmethyl)butanenitrile

> <PUBCHEM_IUPAC_NAME>
2-methyl-2-(naphthalen-1-ylmethyl)butanenitrile

> <PUBCHEM_IUPAC_SYSTEMATIC_NAME>
2-methyl-2-(naphthalen-1-ylmethyl)butanenitrile

> <PUBCHEM_IUPAC_TRADITIONAL_NAME>
2-methyl-2-(1-naphthylmethyl)butyronitrile

> <PUBCHEM_IUPAC_INCHI>
InChI=1S/C16H17N/c1-3-16(2,12-17)11-14-9-6-8-13-7-4-5-10-15(13)14/h4-10H,3,11H2,1-2H3

> <PUBCHEM_IUPAC_INCHIKEY>
MEJMJBDIZSUIFN-UHFFFAOYSA-N

> <PUBCHEM_XLOGP3>
4.8

> <PUBCHEM_EXACT_MASS>
223.1361

> <PUBCHEM_MOLECULAR_FORMULA>
C16H17N

> <PUBCHEM_MOLECULAR_WEIGHT>
223.31288

> <PUBCHEM_OPENEYE_CAN_SMILES>
CCC(C)(CC1=CC=CC2=CC=CC=C21)C#N

> <PUBCHEM_OPENEYE_ISO_SMILES>
CCC(C)(CC1=CC=CC2=CC=CC=C21)C#N

> <PUBCHEM_CACTVS_TPSA>
23.8

> <PUBCHEM_MONOISOTOPIC_WEIGHT>
223.1361

> <PUBCHEM_TOTAL_CHARGE>
0

> <PUBCHEM_HEAVY_ATOM_COUNT>
17

> <PUBCHEM_ATOM_DEF_STEREO_COUNT>
0

> <PUBCHEM_ATOM_UDEF_STEREO_COUNT>
1

> <PUBCHEM_BOND_DEF_STEREO_COUNT>
0

> <PUBCHEM_BOND_UDEF_STEREO_COUNT>
0

> <PUBCHEM_ISOTOPIC_ATOM_COUNT>
0

> <PUBCHEM_COMPONENT_COUNT>
1

> <PUBCHEM_CACTVS_TAUTO_COUNT>
1

> <PUBCHEM_COORDINATE_TYPE>
1
5
255

> <PUBCHEM_BONDANNOTATIONS>
10  14  8
10  15  8
12  16  8
13  14  8
15  17  8
16  17  8
2  6  3
5  7  8
5  9  8
7  10  8
7  12  8
9  13  8

$$$$
65378683
  -OEChem-10251221432D

 31 32  0     0  0  0  0  0  0999 V2000
    2.0000   -2.2673    0.0000 N   0  0  0  0  0  0  0  0  0  0  0  0
    3.7320   -1.2673    0.0000 C   0  0  0  0  0  0  0  0  0  0  0  0
    4.5981   -0.7673    0.0000 C   0  0  0  0  0  0  0  0  0  0  0  0
    4.5981    0.2327    0.0000 C   0  0  0  0  0  0  0  0  0  0  0  0
    5.4641    0.7327    0.0000 C   0  0  0  0  0  0  0  0  0  0  0  0
    4.2320   -2.1334    0.0000 C   0  0  0  0  0  0  0  0  0  0  0  0
    3.2320   -0.4013    0.0000 C   0  0  0  0  0  0  0  0  0  0  0  0
    5.4641    1.7327    0.0000 C   0  0  0  0  0  0  0  0  0  0  0  0
    3.7320    0.7327    0.0000 C   0  0  0  0  0  0  0  0  0  0  0  0
    6.3580    0.1980    0.0000 C   0  0  0  0  0  0  0  0  0  0  0  0
    2.8660   -1.7673    0.0000 C   0  0  0  0  0  0  0  0  0  0  0  0
    4.5981    2.2327    0.0000 C   0  0  0  0  0  0  0  0  0  0  0  0
    3.7320    1.7327    0.0000 C   0  0  0  0  0  0  0  0  0  0  0  0
    6.3580    2.2673    0.0000 C   0  0  0  0  0  0  0  0  0  0  0  0
    7.2641    0.7119    0.0000 C   0  0  0  0  0  0  0  0  0  0  0  0
    7.2641    1.7535    0.0000 C   0  0  0  0  0  0  0  0  0  0  0  0
    4.8101   -1.3499    0.0000 H   0  0  0  0  0  0  0  0  0  0  0  0
    5.2087   -0.6597    0.0000 H   0  0  0  0  0  0  0  0  0  0  0  0
    3.7690   -0.0913    0.0000 H   0  0  0  0  0  0  0  0  0  0  0  0
    3.6951   -2.4434    0.0000 H   0  0  0  0  0  0  0  0  0  0  0  0
    4.5420   -2.6703    0.0000 H   0  0  0  0  0  0  0  0  0  0  0  0
    4.7690   -1.8234    0.0000 H   0  0  0  0  0  0  0  0  0  0  0  0
    2.9220    0.1356    0.0000 H   0  0  0  0  0  0  0  0  0  0  0  0
    2.6951   -0.7113    0.0000 H   0  0  0  0  0  0  0  0  0  0  0  0
    3.1951    0.4227    0.0000 H   0  0  0  0  0  0  0  0  0  0  0  0
    6.3509   -0.4220    0.0000 H   0  0  0  0  0  0  0  0  0  0  0  0
    4.5981    2.8527    0.0000 H   0  0  0  0  0  0  0  0  0  0  0  0
    3.1951    2.0427    0.0000 H   0  0  0  0  0  0  0  0  0  0  0  0
    6.3509    2.8873    0.0000 H   0  0  0  0  0  0  0  0  0  0  0  0
    7.7998    0.3998    0.0000 H   0  0  0  0  0  0  0  0  0  0  0  0
    7.7998    2.0656    0.0000 H   0  0  0  0  0  0  0  0  0  0  0  0
  1 11  3  0  0  0  0
  2  3  1  0  0  0  0
  2  6  1  0  0  0  0
  2  7  1  0  0  0  0
  2 11  1  0  0  0  0
  3  4  1  0  0  0  0
  3 17  1  0  0  0  0
  3 18  1  0  0  0  0
  4  5  1  0  0  0  0
  4  9  2  0  0  0  0
  5  8  1  0  0  0  0
  5 10  2  0  0  0  0
  6 20  1  0  0  0  0
  6 21  1  0  0  0  0
  6 22  1  0  0  0  0
  7 19  1  0  0  0  0
  7 23  1  0  0  0  0
  7 24  1  0  0  0  0
  8 12  1  0  0  0  0
  8 14  2  0  0  0  0
  9 13  1  0  0  0  0
  9 25  1  0  0  0  0
 10 15  1  0  0  0  0
 10 26  1  0  0  0  0
 12 13  2  0  0  0  0
 12 27  1  0  0  0  0
 13 28  1  0  0  0  0
 14 16  1  0  0  0  0
 14 29  1  0  0  0  0
 15 16  2  0  0  0  0
 15 30  1  0  0  0  0
 16 31  1  0  0  0  0
M  END
> <PUBCHEM_COMPOUND_CID>
65378683

> <PUBCHEM_COMPOUND_CANONICALIZED>
1

> <PUBCHEM_CACTVS_COMPLEXITY>
283

> <PUBCHEM_CACTVS_HBOND_ACCEPTOR>
1

> <PUBCHEM_CACTVS_HBOND_DONOR>
0

> <PUBCHEM_CACTVS_ROTATABLE_BOND>
2

> <PUBCHEM_CACTVS_SUBSKEYS>
AAADccByAAAAAAAAAAAAAAAAAAAAAAAAAAAwYAAAAAAAAADBUAAAHAAAAAAADgCBGAAyAMAAAACQBiBCAAACAAAgAAAIiAAAAIgIoCKAERCAIAAggAAIiA8AgMAPgAACAAAQAAAAAAQAACAAAAAAAAAAAA==

> <PUBCHEM_IUPAC_OPENEYE_NAME>
2,2-dimethyl-3-(1-naphthyl)propanenitrile

> <PUBCHEM_IUPAC_CAS_NAME>
2,2-dimethyl-3-(1-naphthalenyl)propanenitrile

> <PUBCHEM_IUPAC_NAME>
2,2-dimethyl-3-naphthalen-1-ylpropanenitrile

> <PUBCHEM_IUPAC_SYSTEMATIC_NAME>
2,2-dimethyl-3-naphthalen-1-yl-propanenitrile

> <PUBCHEM_IUPAC_TRADITIONAL_NAME>
2,2-dimethyl-3-(1-naphthyl)propionitrile

> <PUBCHEM_IUPAC_INCHI>
InChI=1S/C15H15N/c1-15(2,11-16)10-13-8-5-7-12-6-3-4-9-14(12)13/h3-9H,10H2,1-2H3

> <PUBCHEM_IUPAC_INCHIKEY>
OWXDSTUMJPMKAI-UHFFFAOYSA-N

> <PUBCHEM_XLOGP3>
4.5

> <PUBCHEM_EXACT_MASS>
209.120449

> <PUBCHEM_MOLECULAR_FORMULA>
C15H15N

> <PUBCHEM_MOLECULAR_WEIGHT>
209.2863

> <PUBCHEM_OPENEYE_CAN_SMILES>
CC(C)(CC1=CC=CC2=CC=CC=C21)C#N

> <PUBCHEM_OPENEYE_ISO_SMILES>
CC(C)(CC1=CC=CC2=CC=CC=C21)C#N

> <PUBCHEM_CACTVS_TPSA>
23.8

> <PUBCHEM_MONOISOTOPIC_WEIGHT>
209.120449

> <PUBCHEM_TOTAL_CHARGE>
0

> <PUBCHEM_HEAVY_ATOM_COUNT>
16

> <PUBCHEM_ATOM_DEF_STEREO_COUNT>
0

> <PUBCHEM_ATOM_UDEF_STEREO_COUNT>
0

> <PUBCHEM_BOND_DEF_STEREO_COUNT>
0

> <PUBCHEM_BOND_UDEF_STEREO_COUNT>
0

> <PUBCHEM_ISOTOPIC_ATOM_COUNT>
0

> <PUBCHEM_COMPONENT_COUNT>
1

> <PUBCHEM_CACTVS_TAUTO_COUNT>
1

> <PUBCHEM_COORDINATE_TYPE>
1
5
255

> <PUBCHEM_BONDANNOTATIONS>
10  15  8
12  13  8
14  16  8
15  16  8
4  5  8
4  9  8
5  10  8
5  8  8
8  12  8
8  14  8
9  13  8

$$$$
65378690
  -OEChem-10251221432D

 35 37  0     0  0  0  0  0  0999 V2000
    5.0690   -2.4365    0.0000 N   0  0  0  0  0  0  0  0  0  0  0  0
    3.5827   -1.0982    0.0000 C   0  0  0  0  0  0  0  0  0  0  0  0
    3.0827   -0.2322    0.0000 C   0  0  0  0  0  0  0  0  0  0  0  0
    2.9136   -1.8413    0.0000 C   0  0  0  0  0  0  0  0  0  0  0  0
    2.1045   -0.4401    0.0000 C   0  0  0  0  0  0  0  0  0  0  0  0
    2.0000   -1.4346    0.0000 C   0  0  0  0  0  0  0  0  0  0  0  0
    4.4487   -0.5982    0.0000 C   0  0  0  0  0  0  0  0  0  0  0  0
    4.4487    0.4018    0.0000 C   0  0  0  0  0  0  0  0  0  0  0  0
    4.3258   -1.7673    0.0000 C   0  0  0  0  0  0  0  0  0  0  0  0
    5.3147    0.9018    0.0000 C   0  0  0  0  0  0  0  0  0  0  0  0
    3.5827    0.9018    0.0000 C   0  0  0  0  0  0  0  0  0  0  0  0
    5.3147    1.9018    0.0000 C   0  0  0  0  0  0  0  0  0  0  0  0
    6.2087    0.3671    0.0000 C   0  0  0  0  0  0  0  0  0  0  0  0
    3.5827    1.9018    0.0000 C   0  0  0  0  0  0  0  0  0  0  0  0
    4.4487    2.4018    0.0000 C   0  0  0  0  0  0  0  0  0  0  0  0
    6.2087    2.4365    0.0000 C   0  0  0  0  0  0  0  0  0  0  0  0
    7.1147    0.8810    0.0000 C   0  0  0  0  0  0  0  0  0  0  0  0
    7.1147    1.9226    0.0000 C   0  0  0  0  0  0  0  0  0  0  0  0
    3.6491    0.0200    0.0000 H   0  0  0  0  0  0  0  0  0  0  0  0
    2.8911    0.3575    0.0000 H   0  0  0  0  0  0  0  0  0  0  0  0
    2.6035   -2.3783    0.0000 H   0  0  0  0  0  0  0  0  0  0  0  0
    3.4151   -2.2058    0.0000 H   0  0  0  0  0  0  0  0  0  0  0  0
    2.0397    0.1765    0.0000 H   0  0  0  0  0  0  0  0  0  0  0  0
    1.4845   -0.4401    0.0000 H   0  0  0  0  0  0  0  0  0  0  0  0
    1.3936   -1.3057    0.0000 H   0  0  0  0  0  0  0  0  0  0  0  0
    1.8084   -2.0243    0.0000 H   0  0  0  0  0  0  0  0  0  0  0  0
    4.6608   -1.1808    0.0000 H   0  0  0  0  0  0  0  0  0  0  0  0
    5.0593   -0.4905    0.0000 H   0  0  0  0  0  0  0  0  0  0  0  0
    3.0457    0.5918    0.0000 H   0  0  0  0  0  0  0  0  0  0  0  0
    6.2015   -0.2528    0.0000 H   0  0  0  0  0  0  0  0  0  0  0  0
    3.0457    2.2118    0.0000 H   0  0  0  0  0  0  0  0  0  0  0  0
    4.4487    3.0218    0.0000 H   0  0  0  0  0  0  0  0  0  0  0  0
    6.2015    3.0564    0.0000 H   0  0  0  0  0  0  0  0  0  0  0  0
    7.6505    0.5689    0.0000 H   0  0  0  0  0  0  0  0  0  0  0  0
    7.6505    2.2347    0.0000 H   0  0  0  0  0  0  0  0  0  0  0  0
  1  9  3  0  0  0  0
  2  3  1  0  0  0  0
  2  4  1  0  0  0  0
  2  7  1  0  0  0  0
  2  9  1  0  0  0  0
  3  5  1  0  0  0  0
  3 19  1  0  0  0  0
  3 20  1  0  0  0  0
  4  6  1  0  0  0  0
  4 21  1  0  0  0  0
  4 22  1  0  0  0  0
  5  6  1  0  0  0  0
  5 23  1  0  0  0  0
  5 24  1  0  0  0  0
  6 25  1  0  0  0  0
  6 26  1  0  0  0  0
  7  8  1  0  0  0  0
  7 27  1  0  0  0  0
  7 28  1  0  0  0  0
  8 10  1  0  0  0  0
  8 11  2  0  0  0  0
 10 12  1  0  0  0  0
 10 13  2  0  0  0  0
 11 14  1  0  0  0  0
 11 29  1  0  0  0  0
 12 15  1  0  0  0  0
 12 16  2  0  0  0  0
 13 17  1  0  0  0  0
 13 30  1  0  0  0  0
 14 15  2  0  0  0  0
 14 31  1  0  0  0  0
 15 32  1  0  0  0  0
 16 18  1  0  0  0  0
 16 33  1  0  0  0  0
 17 18  2  0  0  0  0
 17 34  1  0  0  0  0
 18 35  1  0  0  0  0
M  END
> <PUBCHEM_COMPOUND_CID>
65378690

> <PUBCHEM_COMPOUND_CANONICALIZED>
1

> <PUBCHEM_CACTVS_COMPLEXITY>
331

> <PUBCHEM_CACTVS_HBOND_ACCEPTOR>
1

> <PUBCHEM_CACTVS_HBOND_DONOR>
0

> <PUBCHEM_CACTVS_ROTATABLE_BOND>
2

> <PUBCHEM_CACTVS_SUBSKEYS>
AAADceB6AAAAAAAAAAAAAAAAAAAAAYAAAAAwYAAAAAAAAADBUAAAHAAAAAAADgCBGAAwAMAAAACQBiBCAAACAAAgAAAIiAAAAIgIoCKAERCAIAAggAAIiA8AgMAPgAACAAAQAAAAAAQAACAAAAAAAAAAAA==

> <PUBCHEM_IUPAC_OPENEYE_NAME>
1-(1-naphthylmethyl)cyclopentanecarbonitrile

> <PUBCHEM_IUPAC_CAS_NAME>
1-(1-naphthalenylmethyl)-1-cyclopentanecarbonitrile

> <PUBCHEM_IUPAC_NAME>
1-(naphthalen-1-ylmethyl)cyclopentane-1-carbonitrile

> <PUBCHEM_IUPAC_SYSTEMATIC_NAME>
1-(naphthalen-1-ylmethyl)cyclopentane-1-carbonitrile

> <PUBCHEM_IUPAC_TRADITIONAL_NAME>
1-(1-naphthylmethyl)cyclopentanecarbonitrile

> <PUBCHEM_IUPAC_INCHI>
InChI=1S/C17H17N/c18-13-17(10-3-4-11-17)12-15-8-5-7-14-6-1-2-9-16(14)15/h1-2,5-9H,3-4,10-12H2

> <PUBCHEM_IUPAC_INCHIKEY>
UWFHEBNZMHBSSL-UHFFFAOYSA-N

> <PUBCHEM_XLOGP3>
5

> <PUBCHEM_EXACT_MASS>
235.1361

> <PUBCHEM_MOLECULAR_FORMULA>
C17H17N

> <PUBCHEM_MOLECULAR_WEIGHT>
235.32358

> <PUBCHEM_OPENEYE_CAN_SMILES>
C1CCC(C1)(CC2=CC=CC3=CC=CC=C32)C#N

> <PUBCHEM_OPENEYE_ISO_SMILES>
C1CCC(C1)(CC2=CC=CC3=CC=CC=C32)C#N

> <PUBCHEM_CACTVS_TPSA>
23.8

> <PUBCHEM_MONOISOTOPIC_WEIGHT>
235.1361

> <PUBCHEM_TOTAL_CHARGE>
0

> <PUBCHEM_HEAVY_ATOM_COUNT>
18

> <PUBCHEM_ATOM_DEF_STEREO_COUNT>
0

> <PUBCHEM_ATOM_UDEF_STEREO_COUNT>
0

> <PUBCHEM_BOND_DEF_STEREO_COUNT>
0

> <PUBCHEM_BOND_UDEF_STEREO_COUNT>
0

> <PUBCHEM_ISOTOPIC_ATOM_COUNT>
0

> <PUBCHEM_COMPONENT_COUNT>
1

> <PUBCHEM_CACTVS_TAUTO_COUNT>
1

> <PUBCHEM_COORDINATE_TYPE>
1
5
255

> <PUBCHEM_BONDANNOTATIONS>
10  12  8
10  13  8
11  14  8
12  15  8
12  16  8
13  17  8
14  15  8
16  18  8
17  18  8
8  10  8
8  11  8

$$$$
65390592
  -OEChem-10251221442D

 36 37  0     0  0  0  0  0  0999 V2000
    2.8660    2.9330    0.0000 Cl  0  0  0  0  0  0  0  0  0  0  0  0
    2.0000    1.4330    0.0000 O   0  0  0  0  0  0  0  0  0  0  0  0
    2.8660   -2.0670    0.0000 C   0  0  0  0  0  0  0  0  0  0  0  0
    3.7320   -1.5670    0.0000 C   0  0  0  0  0  0  0  0  0  0  0  0
    2.0000   -1.5670    0.0000 C   0  0  0  0  0  0  0  0  0  0  0  0
    2.8660   -0.0670    0.0000 C   0  0  0  0  0  0  0  0  0  0  0  0
    3.7320   -0.5670    0.0000 C   0  0  0  0  0  0  0  0  0  0  0  0
    2.0000   -0.5670    0.0000 C   0  0  0  0  0  0  0  0  0  0  0  0
    2.3660   -2.9330    0.0000 C   0  0  0  0  0  0  0  0  0  0  0  0
    3.3660   -2.9330    0.0000 C   0  0  0  0  0  0  0  0  0  0  0  0
    2.8660    0.9330    0.0000 C   0  0  0  0  0  0  0  0  0  0  0  0
    3.7320    1.4330    0.0000 C   0  0  0  0  0  0  0  0  0  0  0  0
    3.7320    2.4330    0.0000 C   0  0  0  0  0  0  0  0  0  0  0  0
    4.5981    0.9330    0.0000 C   0  0  0  0  0  0  0  0  0  0  0  0
    4.5981    2.9330    0.0000 C   0  0  0  0  0  0  0  0  0  0  0  0
    5.4641    1.4330    0.0000 C   0  0  0  0  0  0  0  0  0  0  0  0
    5.4641    2.4330    0.0000 C   0  0  0  0  0  0  0  0  0  0  0  0
    3.9441   -2.1496    0.0000 H   0  0  0  0  0  0  0  0  0  0  0  0
    4.3426   -1.4593    0.0000 H   0  0  0  0  0  0  0  0  0  0  0  0
    1.3894   -1.4593    0.0000 H   0  0  0  0  0  0  0  0  0  0  0  0
    1.7880   -2.1496    0.0000 H   0  0  0  0  0  0  0  0  0  0  0  0
    3.4030    0.2430    0.0000 H   0  0  0  0  0  0  0  0  0  0  0  0
    4.3426   -0.6746    0.0000 H   0  0  0  0  0  0  0  0  0  0  0  0
    3.9441    0.0156    0.0000 H   0  0  0  0  0  0  0  0  0  0  0  0
    1.7880    0.0156    0.0000 H   0  0  0  0  0  0  0  0  0  0  0  0
    1.3894   -0.6746    0.0000 H   0  0  0  0  0  0  0  0  0  0  0  0
    2.8291   -3.2430    0.0000 H   0  0  0  0  0  0  0  0  0  0  0  0
    3.6760   -3.4700    0.0000 H   0  0  0  0  0  0  0  0  0  0  0  0
    3.9030   -2.6230    0.0000 H   0  0  0  0  0  0  0  0  0  0  0  0
    1.8291   -2.6230    0.0000 H   0  0  0  0  0  0  0  0  0  0  0  0
    2.0560   -3.4700    0.0000 H   0  0  0  0  0  0  0  0  0  0  0  0
    2.9030   -3.2430    0.0000 H   0  0  0  0  0  0  0  0  0  0  0  0
    4.5981    0.3130    0.0000 H   0  0  0  0  0  0  0  0  0  0  0  0
    4.5981    3.5530    0.0000 H   0  0  0  0  0  0  0  0  0  0  0  0
    6.0010    1.1230    0.0000 H   0  0  0  0  0  0  0  0  0  0  0  0
    6.0010    2.7430    0.0000 H   0  0  0  0  0  0  0  0  0  0  0  0
  1 13  1  0  0  0  0
  2 11  2  0  0  0  0
  3  4  1  0  0  0  0
  3  5  1  0  0  0  0
  3  9  1  0  0  0  0
  3 10  1  0  0  0  0
  4  7  1  0  0  0  0
  4 18  1  0  0  0  0
  4 19  1  0  0  0  0
  5  8  1  0  0  0  0
  5 20  1  0  0  0  0
  5 21  1  0  0  0  0
  6  7  1  0  0  0  0
  6  8  1  0  0  0  0
  6 11  1  0  0  0  0
  6 22  1  0  0  0  0
  7 23  1  0  0  0  0
  7 24  1  0  0  0  0
  8 25  1  0  0  0  0
  8 26  1  0  0  0  0
  9 30  1  0  0  0  0
  9 31  1  0  0  0  0
  9 32  1  0  0  0  0
 10 27  1  0  0  0  0
 10 28  1  0  0  0  0
 10 29  1  0  0  0  0
 11 12  1  0  0  0  0
 12 13  1  0  0  0  0
 12 14  2  0  0  0  0
 13 15  2  0  0  0  0
 14 16  1  0  0  0  0
 14 33  1  0  0  0  0
 15 17  1  0  0  0  0
 15 34  1  0  0  0  0
 16 17  2  0  0  0  0
 16 35  1  0  0  0  0
 17 36  1  0  0  0  0
M  END
> <PUBCHEM_COMPOUND_CID>
65390592

> <PUBCHEM_COMPOUND_CANONICALIZED>
1

> <PUBCHEM_CACTVS_COMPLEXITY>
275

> <PUBCHEM_CACTVS_HBOND_ACCEPTOR>
1

> <PUBCHEM_CACTVS_HBOND_DONOR>
0

> <PUBCHEM_CACTVS_ROTATABLE_BOND>
2

> <PUBCHEM_CACTVS_SUBSKEYS>
AAADceBwIAAEAAAAAAAAAAAAAAAAAAAAAAAwYAAAAAAAAAABAAAAGgIAAAAADwaAmCAyAIAAAACIAqBSAAACAAAkBQAIiAEAAsgIIDKBFxCAIQAggAAIjYcIiMCPAAAAAAABAACAAAAAAAIAAAAAAAAAAA==

> <PUBCHEM_IUPAC_OPENEYE_NAME>
(2-chlorophenyl)-(4,4-dimethylcyclohexyl)methanone

> <PUBCHEM_IUPAC_CAS_NAME>
(2-chlorophenyl)-(4,4-dimethylcyclohexyl)methanone

> <PUBCHEM_IUPAC_NAME>
(2-chlorophenyl)-(4,4-dimethylcyclohexyl)methanone

> <PUBCHEM_IUPAC_SYSTEMATIC_NAME>
(2-chlorophenyl)-(4,4-dimethylcyclohexyl)methanone

> <PUBCHEM_IUPAC_TRADITIONAL_NAME>
(2-chlorophenyl)-(4,4-dimethylcyclohexyl)methanone

> <PUBCHEM_IUPAC_INCHI>
InChI=1S/C15H19ClO/c1-15(2)9-7-11(8-10-15)14(17)12-5-3-4-6-13(12)16/h3-6,11H,7-10H2,1-2H3

> <PUBCHEM_IUPAC_INCHIKEY>
ONOPZEICZNJEEK-UHFFFAOYSA-N

> <PUBCHEM_XLOGP3>
4.8

> <PUBCHEM_EXACT_MASS>
250.112443

> <PUBCHEM_MOLECULAR_FORMULA>
C15H19ClO

> <PUBCHEM_MOLECULAR_WEIGHT>
250.76376

> <PUBCHEM_OPENEYE_CAN_SMILES>
CC1(CCC(CC1)C(=O)C2=CC=CC=C2Cl)C

> <PUBCHEM_OPENEYE_ISO_SMILES>
CC1(CCC(CC1)C(=O)C2=CC=CC=C2Cl)C

> <PUBCHEM_CACTVS_TPSA>
17.1

> <PUBCHEM_MONOISOTOPIC_WEIGHT>
250.112443

> <PUBCHEM_TOTAL_CHARGE>
0

> <PUBCHEM_HEAVY_ATOM_COUNT>
17

> <PUBCHEM_ATOM_DEF_STEREO_COUNT>
0

> <PUBCHEM_ATOM_UDEF_STEREO_COUNT>
0

> <PUBCHEM_BOND_DEF_STEREO_COUNT>
0

> <PUBCHEM_BOND_UDEF_STEREO_COUNT>
0

> <PUBCHEM_ISOTOPIC_ATOM_COUNT>
0

> <PUBCHEM_COMPONENT_COUNT>
1

> <PUBCHEM_CACTVS_TAUTO_COUNT>
2

> <PUBCHEM_COORDINATE_TYPE>
1
5
255

> <PUBCHEM_BONDANNOTATIONS>
12  13  8
12  14  8
13  15  8
14  16  8
15  17  8
16  17  8

$$$$
65399932
  -OEChem-10251221442D

 33 34  0     0  0  0  0  0  0999 V2000
    4.1906   -0.9948    0.0000 Cl  0  0  0  0  0  0  0  0  0  0  0  0
    5.6906    1.6033    0.0000 O   0  0  0  0  0  0  0  0  0  0  0  0
    4.1906    0.7373    0.0000 C   0  0  0  0  0  0  0  0  0  0  0  0
    3.7568   -0.1637    0.0000 C   0  0  0  0  0  0  0  0  0  0  0  0
    3.7568    1.6383    0.0000 C   0  0  0  0  0  0  0  0  0  0  0  0
    2.7818   -0.3862    0.0000 C   0  0  0  0  0  0  0  0  0  0  0  0
    2.7818    1.8608    0.0000 C   0  0  0  0  0  0  0  0  0  0  0  0
    2.0000    0.2373    0.0000 C   0  0  0  0  0  0  0  0  0  0  0  0
    2.0000    1.2373    0.0000 C   0  0  0  0  0  0  0  0  0  0  0  0
    5.1906    0.7373    0.0000 C   0  0  0  0  0  0  0  0  0  0  0  0
    5.6906   -0.1287    0.0000 C   0  0  0  0  0  0  0  0  0  0  0  0
    5.1906   -0.9948    0.0000 C   0  0  0  0  0  0  0  0  0  0  0  0
    6.6906   -0.1287    0.0000 C   0  0  0  0  0  0  0  0  0  0  0  0
    5.6906   -1.8608    0.0000 C   0  0  0  0  0  0  0  0  0  0  0  0
    7.1906   -0.9948    0.0000 C   0  0  0  0  0  0  0  0  0  0  0  0
    6.6906   -1.8608    0.0000 C   0  0  0  0  0  0  0  0  0  0  0  0
    4.5205    0.2123    0.0000 H   0  0  0  0  0  0  0  0  0  0  0  0
    3.7568   -0.7837    0.0000 H   0  0  0  0  0  0  0  0  0  0  0  0
    4.3612   -0.3016    0.0000 H   0  0  0  0  0  0  0  0  0  0  0  0
    4.3612    1.7762    0.0000 H   0  0  0  0  0  0  0  0  0  0  0  0
    3.7568    2.2583    0.0000 H   0  0  0  0  0  0  0  0  0  0  0  0
    2.2971   -0.7728    0.0000 H   0  0  0  0  0  0  0  0  0  0  0  0
    3.0508   -0.9448    0.0000 H   0  0  0  0  0  0  0  0  0  0  0  0
    3.0508    2.4194    0.0000 H   0  0  0  0  0  0  0  0  0  0  0  0
    2.2971    2.2474    0.0000 H   0  0  0  0  0  0  0  0  0  0  0  0
    1.3955    0.3753    0.0000 H   0  0  0  0  0  0  0  0  0  0  0  0
    1.7310   -0.3213    0.0000 H   0  0  0  0  0  0  0  0  0  0  0  0
    1.7310    1.7959    0.0000 H   0  0  0  0  0  0  0  0  0  0  0  0
    1.3955    1.0993    0.0000 H   0  0  0  0  0  0  0  0  0  0  0  0
    7.0006    0.4082    0.0000 H   0  0  0  0  0  0  0  0  0  0  0  0
    5.3806   -2.3977    0.0000 H   0  0  0  0  0  0  0  0  0  0  0  0
    7.8106   -0.9948    0.0000 H   0  0  0  0  0  0  0  0  0  0  0  0
    7.0006   -2.3977    0.0000 H   0  0  0  0  0  0  0  0  0  0  0  0
  1 12  1  0  0  0  0
  2 10  2  0  0  0  0
  3  4  1  0  0  0  0
  3  5  1  0  0  0  0
  3 10  1  0  0  0  0
  3 17  1  0  0  0  0
  4  6  1  0  0  0  0
  4 18  1  0  0  0  0
  4 19  1  0  0  0  0
  5  7  1  0  0  0  0
  5 20  1  0  0  0  0
  5 21  1  0  0  0  0
  6  8  1  0  0  0  0
  6 22  1  0  0  0  0
  6 23  1  0  0  0  0
  7  9  1  0  0  0  0
  7 24  1  0  0  0  0
  7 25  1  0  0  0  0
  8  9  1  0  0  0  0
  8 26  1  0  0  0  0
  8 27  1  0  0  0  0
  9 28  1  0  0  0  0
  9 29  1  0  0  0  0
 10 11  1  0  0  0  0
 11 12  1  0  0  0  0
 11 13  2  0  0  0  0
 12 14  2  0  0  0  0
 13 15  1  0  0  0  0
 13 30  1  0  0  0  0
 14 16  1  0  0  0  0
 14 31  1  0  0  0  0
 15 16  2  0  0  0  0
 15 32  1  0  0  0  0
 16 33  1  0  0  0  0
M  END
> <PUBCHEM_COMPOUND_CID>
65399932

> <PUBCHEM_COMPOUND_CANONICALIZED>
1

> <PUBCHEM_CACTVS_COMPLEXITY>
231

> <PUBCHEM_CACTVS_HBOND_ACCEPTOR>
1

> <PUBCHEM_CACTVS_HBOND_DONOR>
0

> <PUBCHEM_CACTVS_ROTATABLE_BOND>
2

> <PUBCHEM_CACTVS_SUBSKEYS>
AAADceBwIAAEAAAAAAAAAAAAAAAAAAAAAAAwAAAABgAAAAABAAAAGgIAAAAADQaAmCAwAIAAAACIAqBSAAACAAAkBQAIiAEAAsgIIDKBFxCAIQAggAAIjYcIiMCOAAAAAAABAAAAAAAAAAIAAAAAAAAAAA==

> <PUBCHEM_IUPAC_OPENEYE_NAME>
(2-chlorophenyl)-cycloheptyl-methanone

> <PUBCHEM_IUPAC_CAS_NAME>
(2-chlorophenyl)-cycloheptylmethanone

> <PUBCHEM_IUPAC_NAME>
(2-chlorophenyl)-cycloheptylmethanone

> <PUBCHEM_IUPAC_SYSTEMATIC_NAME>
(2-chlorophenyl)-cycloheptyl-methanone

> <PUBCHEM_IUPAC_TRADITIONAL_NAME>
(2-chlorophenyl)-cycloheptyl-methanone

> <PUBCHEM_IUPAC_INCHI>
InChI=1S/C14H17ClO/c15-13-10-6-5-9-12(13)14(16)11-7-3-1-2-4-8-11/h5-6,9-11H,1-4,7-8H2

> <PUBCHEM_IUPAC_INCHIKEY>
FPBVJNWMTNRMHA-UHFFFAOYSA-N

> <PUBCHEM_XLOGP3>
4.7

> <PUBCHEM_EXACT_MASS>
236.096793

> <PUBCHEM_MOLECULAR_FORMULA>
C14H17ClO

> <PUBCHEM_MOLECULAR_WEIGHT>
236.73718

> <PUBCHEM_OPENEYE_CAN_SMILES>
C1CCCC(CC1)C(=O)C2=CC=CC=C2Cl

> <PUBCHEM_OPENEYE_ISO_SMILES>
C1CCCC(CC1)C(=O)C2=CC=CC=C2Cl

> <PUBCHEM_CACTVS_TPSA>
17.1

> <PUBCHEM_MONOISOTOPIC_WEIGHT>
236.096793

> <PUBCHEM_TOTAL_CHARGE>
0

> <PUBCHEM_HEAVY_ATOM_COUNT>
16

> <PUBCHEM_ATOM_DEF_STEREO_COUNT>
0

> <PUBCHEM_ATOM_UDEF_STEREO_COUNT>
0

> <PUBCHEM_BOND_DEF_STEREO_COUNT>
0

> <PUBCHEM_BOND_UDEF_STEREO_COUNT>
0

> <PUBCHEM_ISOTOPIC_ATOM_COUNT>
0

> <PUBCHEM_COMPONENT_COUNT>
1

> <PUBCHEM_CACTVS_TAUTO_COUNT>
2

> <PUBCHEM_COORDINATE_TYPE>
1
5
255

> <PUBCHEM_BONDANNOTATIONS>
11  12  8
11  13  8
12  14  8
13  15  8
14  16  8
15  16  8

$$$$
