61868567
  -OEChem-11301218212D

 33 34  0     0  0  0  0  0  0999 V2000
    2.0000   -0.5000    0.0000 Cl  0  0  0  0  0  0  0  0  0  0  0  0
    2.8660    1.0000    0.0000 O   0  0  0  0  0  0  0  0  0  0  0  0
    6.3301    2.0000    0.0000 C   0  0  0  0  0  0  0  0  0  0  0  0
    4.5981    1.0000    0.0000 C   0  0  0  0  0  0  0  0  0  0  0  0
    5.4641    2.5000    0.0000 C   0  0  0  0  0  0  0  0  0  0  0  0
    6.3301    1.0000    0.0000 C   0  0  0  0  0  0  0  0  0  0  0  0
    5.4641    0.5000    0.0000 C   0  0  0  0  0  0  0  0  0  0  0  0
    4.5981    2.0000    0.0000 C   0  0  0  0  0  0  0  0  0  0  0  0
    7.1962    2.5000    0.0000 C   0  0  0  0  0  0  0  0  0  0  0  0
    3.7320    0.5000    0.0000 C   0  0  0  0  0  0  0  0  0  0  0  0
    3.7320   -0.5000    0.0000 C   0  0  0  0  0  0  0  0  0  0  0  0
    2.8660   -1.0000    0.0000 C   0  0  0  0  0  0  0  0  0  0  0  0
    4.5981   -1.0000    0.0000 C   0  0  0  0  0  0  0  0  0  0  0  0
    2.8660   -2.0000    0.0000 C   0  0  0  0  0  0  0  0  0  0  0  0
    4.5981   -2.0000    0.0000 C   0  0  0  0  0  0  0  0  0  0  0  0
    3.7320   -2.5000    0.0000 C   0  0  0  0  0  0  0  0  0  0  0  0
    6.8671    1.6900    0.0000 H   0  0  0  0  0  0  0  0  0  0  0  0
    4.5981    0.3800    0.0000 H   0  0  0  0  0  0  0  0  0  0  0  0
    5.8626    2.9750    0.0000 H   0  0  0  0  0  0  0  0  0  0  0  0
    5.0656    2.9750    0.0000 H   0  0  0  0  0  0  0  0  0  0  0  0
    6.5422    0.4174    0.0000 H   0  0  0  0  0  0  0  0  0  0  0  0
    6.9407    1.1077    0.0000 H   0  0  0  0  0  0  0  0  0  0  0  0
    4.3860    2.5826    0.0000 H   0  0  0  0  0  0  0  0  0  0  0  0
    3.9875    1.8923    0.0000 H   0  0  0  0  0  0  0  0  0  0  0  0
    5.0656    0.0251    0.0000 H   0  0  0  0  0  0  0  0  0  0  0  0
    5.8626    0.0251    0.0000 H   0  0  0  0  0  0  0  0  0  0  0  0
    7.5062    1.9631    0.0000 H   0  0  0  0  0  0  0  0  0  0  0  0
    7.7331    2.8100    0.0000 H   0  0  0  0  0  0  0  0  0  0  0  0
    6.8862    3.0369    0.0000 H   0  0  0  0  0  0  0  0  0  0  0  0
    5.1350   -0.6900    0.0000 H   0  0  0  0  0  0  0  0  0  0  0  0
    2.3291   -2.3100    0.0000 H   0  0  0  0  0  0  0  0  0  0  0  0
    5.1350   -2.3100    0.0000 H   0  0  0  0  0  0  0  0  0  0  0  0
    3.7320   -3.1200    0.0000 H   0  0  0  0  0  0  0  0  0  0  0  0
  1 12  1  0  0  0  0
  2 10  2  0  0  0  0
  3  5  1  0  0  0  0
  3  6  1  0  0  0  0
  3  9  1  0  0  0  0
  3 17  1  0  0  0  0
  4  7  1  0  0  0  0
  4  8  1  0  0  0  0
  4 10  1  0  0  0  0
  4 18  1  0  0  0  0
  5  8  1  0  0  0  0
  5 19  1  0  0  0  0
  5 20  1  0  0  0  0
  6  7  1  0  0  0  0
  6 21  1  0  0  0  0
  6 22  1  0  0  0  0
  7 25  1  0  0  0  0
  7 26  1  0  0  0  0
  8 23  1  0  0  0  0
  8 24  1  0  0  0  0
  9 27  1  0  0  0  0
  9 28  1  0  0  0  0
  9 29  1  0  0  0  0
 10 11  1  0  0  0  0
 11 12  1  0  0  0  0
 11 13  2  0  0  0  0
 12 14  2  0  0  0  0
 13 15  1  0  0  0  0
 13 30  1  0  0  0  0
 14 16  1  0  0  0  0
 14 31  1  0  0  0  0
 15 16  2  0  0  0  0
 15 32  1  0  0  0  0
 16 33  1  0  0  0  0
M  END
> <PUBCHEM_COMPOUND_CID>
61868567

> <PUBCHEM_COMPOUND_CANONICALIZED>
1

> <PUBCHEM_CACTVS_COMPLEXITY>
243

> <PUBCHEM_CACTVS_HBOND_ACCEPTOR>
1

> <PUBCHEM_CACTVS_HBOND_DONOR>
0

> <PUBCHEM_CACTVS_ROTATABLE_BOND>
2

> <PUBCHEM_CACTVS_SUBSKEYS>
AAADceBwIAAEAAAAAAAAAAAAAAAAAAAAAAAwYAAAAAAAAAABAAAAGgIAAAAADQaAmCAyAIAAAACIAqBSAAACAAAkBQAIiAEAAsgIIDKBFxCAIQAggAAIjYcIiMCOAAAAAAABAACAAAAAAAIAAAAAAAAAAA==

> <PUBCHEM_IUPAC_OPENEYE_NAME>
(2-chlorophenyl)-(4-methylcyclohexyl)methanone

> <PUBCHEM_IUPAC_CAS_NAME>
(2-chlorophenyl)-(4-methylcyclohexyl)methanone

> <PUBCHEM_IUPAC_NAME>
(2-chlorophenyl)-(4-methylcyclohexyl)methanone

> <PUBCHEM_IUPAC_SYSTEMATIC_NAME>
(2-chlorophenyl)-(4-methylcyclohexyl)methanone

> <PUBCHEM_IUPAC_TRADITIONAL_NAME>
(2-chlorophenyl)-(4-methylcyclohexyl)methanone

> <PUBCHEM_IUPAC_INCHI>
InChI=1S/C14H17ClO/c1-10-6-8-11(9-7-10)14(16)12-4-2-3-5-13(12)15/h2-5,10-11H,6-9H2,1H3

> <PUBCHEM_IUPAC_INCHIKEY>
XIANWNSCVBWWAJ-UHFFFAOYSA-N

> <PUBCHEM_XLOGP3>
4.4

> <PUBCHEM_EXACT_MASS>
236.096793

> <PUBCHEM_MOLECULAR_FORMULA>
C14H17ClO

> <PUBCHEM_MOLECULAR_WEIGHT>
236.73718

> <PUBCHEM_OPENEYE_CAN_SMILES>
CC1CCC(CC1)C(=O)C2=CC=CC=C2Cl

> <PUBCHEM_OPENEYE_ISO_SMILES>
CC1CCC(CC1)C(=O)C2=CC=CC=C2Cl

> <PUBCHEM_CACTVS_TPSA>
17.1

> <PUBCHEM_MONOISOTOPIC_WEIGHT>
236.096793

> <PUBCHEM_TOTAL_CHARGE>
0

> <PUBCHEM_HEAVY_ATOM_COUNT>
16

> <PUBCHEM_ATOM_DEF_STEREO_COUNT>
0

> <PUBCHEM_ATOM_UDEF_STEREO_COUNT>
0

> <PUBCHEM_BOND_DEF_STEREO_COUNT>
0

> <PUBCHEM_BOND_UDEF_STEREO_COUNT>
0

> <PUBCHEM_ISOTOPIC_ATOM_COUNT>
0

> <PUBCHEM_COMPONENT_COUNT>
1

> <PUBCHEM_CACTVS_TAUTO_COUNT>
2

> <PUBCHEM_COORDINATE_TYPE>
1
5
255

> <PUBCHEM_BONDANNOTATIONS>
11  12  8
11  13  8
12  14  8
13  15  8
14  16  8
15  16  8

$$$$
61871394
  -OEChem-11301218212D

 32 33  0     0  0  0  0  0  0999 V2000
    3.0934    3.2792    0.0000 S   0  0  0  0  0  0  0  0  0  0  0  0
    3.7320    1.6156    0.0000 N   0  0  0  0  0  0  0  0  0  0  0  0
    4.8147    2.8180    0.0000 N   0  0  0  0  0  0  0  0  0  0  0  0
    2.8660   -2.8844    0.0000 C   0  0  0  0  0  0  0  0  0  0  0  0
    2.8660   -1.8844    0.0000 C   0  0  0  0  0  0  0  0  0  0  0  0
    2.8660    0.1156    0.0000 C   0  0  0  0  0  0  0  0  0  0  0  0
    2.8660    1.1156    0.0000 C   0  0  0  0  0  0  0  0  0  0  0  0
    3.7320   -1.3844    0.0000 C   0  0  0  0  0  0  0  0  0  0  0  0
    2.0000   -1.3844    0.0000 C   0  0  0  0  0  0  0  0  0  0  0  0
    3.7320   -0.3844    0.0000 C   0  0  0  0  0  0  0  0  0  0  0  0
    2.0000   -0.3844    0.0000 C   0  0  0  0  0  0  0  0  0  0  0  0
    2.0000   -3.3844    0.0000 C   0  0  0  0  0  0  0  0  0  0  0  0
    3.7320   -3.3844    0.0000 C   0  0  0  0  0  0  0  0  0  0  0  0
    3.8366    2.6101    0.0000 C   0  0  0  0  0  0  0  0  0  0  0  0
    4.6456    1.2088    0.0000 C   0  0  0  0  0  0  0  0  0  0  0  0
    5.3147    1.9520    0.0000 C   0  0  0  0  0  0  0  0  0  0  0  0
    2.8660   -3.5044    0.0000 H   0  0  0  0  0  0  0  0  0  0  0  0
    2.6540    1.6982    0.0000 H   0  0  0  0  0  0  0  0  0  0  0  0
    2.2554    1.0079    0.0000 H   0  0  0  0  0  0  0  0  0  0  0  0
    4.2690   -1.6944    0.0000 H   0  0  0  0  0  0  0  0  0  0  0  0
    1.4631   -1.6944    0.0000 H   0  0  0  0  0  0  0  0  0  0  0  0
    4.2690   -0.0744    0.0000 H   0  0  0  0  0  0  0  0  0  0  0  0
    1.4631   -0.0744    0.0000 H   0  0  0  0  0  0  0  0  0  0  0  0
    3.4220   -3.9214    0.0000 H   0  0  0  0  0  0  0  0  0  0  0  0
    4.2690   -3.6944    0.0000 H   0  0  0  0  0  0  0  0  0  0  0  0
    1.6900   -2.8475    0.0000 H   0  0  0  0  0  0  0  0  0  0  0  0
    1.4631   -3.6944    0.0000 H   0  0  0  0  0  0  0  0  0  0  0  0
    2.3100   -3.9214    0.0000 H   0  0  0  0  0  0  0  0  0  0  0  0
    4.0420   -2.8475    0.0000 H   0  0  0  0  0  0  0  0  0  0  0  0
    4.7745    0.6024    0.0000 H   0  0  0  0  0  0  0  0  0  0  0  0
    5.0669    3.3844    0.0000 H   0  0  0  0  0  0  0  0  0  0  0  0
    5.9313    1.8872    0.0000 H   0  0  0  0  0  0  0  0  0  0  0  0
  1 14  2  0  0  0  0
  2  7  1  0  0  0  0
  2 14  1  0  0  0  0
  2 15  1  0  0  0  0
  3 14  1  0  0  0  0
  3 16  1  0  0  0  0
  3 31  1  0  0  0  0
  4  5  1  0  0  0  0
  4 12  1  0  0  0  0
  4 13  1  0  0  0  0
  4 17  1  0  0  0  0
  5  8  2  0  0  0  0
  5  9  1  0  0  0  0
  6  7  1  0  0  0  0
  6 10  2  0  0  0  0
  6 11  1  0  0  0  0
  7 18  1  0  0  0  0
  7 19  1  0  0  0  0
  8 10  1  0  0  0  0
  8 20  1  0  0  0  0
  9 11  2  0  0  0  0
  9 21  1  0  0  0  0
 10 22  1  0  0  0  0
 11 23  1  0  0  0  0
 12 26  1  0  0  0  0
 12 27  1  0  0  0  0
 12 28  1  0  0  0  0
 13 24  1  0  0  0  0
 13 25  1  0  0  0  0
 13 29  1  0  0  0  0
 15 16  2  0  0  0  0
 15 30  1  0  0  0  0
 16 32  1  0  0  0  0
M  END
> <PUBCHEM_COMPOUND_CID>
61871394

> <PUBCHEM_COMPOUND_CANONICALIZED>
1

> <PUBCHEM_CACTVS_COMPLEXITY>
278

> <PUBCHEM_CACTVS_HBOND_ACCEPTOR>
1

> <PUBCHEM_CACTVS_HBOND_DONOR>
1

> <PUBCHEM_CACTVS_ROTATABLE_BOND>
3

> <PUBCHEM_CACTVS_SUBSKEYS>
AAADceBzAABAAAAAAAAAAAAAAAAAAQAAAAAwAAAAAAAAAAABAAAAHAQQAAAADQDBGAQzAIPAAACEAiBGQACCAAAgAgkIiIAIBIiIICKAkRGEIAhogAIIiAcQgMAOwAAAAAAAAACAAAAAAAAAAAAAAAAAAA==

> <PUBCHEM_IUPAC_OPENEYE_NAME>
3-[(4-isopropylphenyl)methyl]-1H-imidazole-2-thione

> <PUBCHEM_IUPAC_CAS_NAME>
3-[(4-propan-2-ylphenyl)methyl]-1H-imidazole-2-thione

> <PUBCHEM_IUPAC_NAME>
3-[(4-propan-2-ylphenyl)methyl]-1H-imidazole-2-thione

> <PUBCHEM_IUPAC_SYSTEMATIC_NAME>
3-[(4-propan-2-ylphenyl)methyl]-1H-imidazole-2-thione

> <PUBCHEM_IUPAC_TRADITIONAL_NAME>
1-(4-isopropylbenzyl)-4-imidazoline-2-thione

> <PUBCHEM_IUPAC_INCHI>
InChI=1S/C13H16N2S/c1-10(2)12-5-3-11(4-6-12)9-15-8-7-14-13(15)16/h3-8,10H,9H2,1-2H3,(H,14,16)

> <PUBCHEM_IUPAC_INCHIKEY>
GEOJAPOOOFHKAW-UHFFFAOYSA-N

> <PUBCHEM_XLOGP3>
2.5

> <PUBCHEM_EXACT_MASS>
232.10342

> <PUBCHEM_MOLECULAR_FORMULA>
C13H16N2S

> <PUBCHEM_MOLECULAR_WEIGHT>
232.34454

> <PUBCHEM_OPENEYE_CAN_SMILES>
CC(C)C1=CC=C(C=C1)CN2C=CNC2=S

> <PUBCHEM_OPENEYE_ISO_SMILES>
CC(C)C1=CC=C(C=C1)CN2C=CNC2=S

> <PUBCHEM_CACTVS_TPSA>
47.4

> <PUBCHEM_MONOISOTOPIC_WEIGHT>
232.10342

> <PUBCHEM_TOTAL_CHARGE>
0

> <PUBCHEM_HEAVY_ATOM_COUNT>
16

> <PUBCHEM_ATOM_DEF_STEREO_COUNT>
0

> <PUBCHEM_ATOM_UDEF_STEREO_COUNT>
0

> <PUBCHEM_BOND_DEF_STEREO_COUNT>
0

> <PUBCHEM_BOND_UDEF_STEREO_COUNT>
0

> <PUBCHEM_ISOTOPIC_ATOM_COUNT>
0

> <PUBCHEM_COMPONENT_COUNT>
1

> <PUBCHEM_CACTVS_TAUTO_COUNT>
2

> <PUBCHEM_COORDINATE_TYPE>
1
5
255

> <PUBCHEM_BONDANNOTATIONS>
15  16  8
2  14  8
2  15  8
3  14  8
3  16  8
5  8  8
5  9  8
6  10  8
6  11  8
8  10  8
9  11  8

$$$$
61872057
  -OEChem-11301218212D

 39 41  0     0  0  0  0  0  0999 V2000
    4.5981    0.5810    0.0000 O   0  0  0  0  0  0  0  0  0  0  0  0
    2.8660    0.5810    0.0000 N   0  0  0  0  0  0  0  0  0  0  0  0
    5.5443   -2.7237    0.0000 N   0  0  0  0  0  0  0  0  0  0  0  0
    2.8660    1.5810    0.0000 C   0  0  0  0  0  0  0  0  0  0  0  0
    2.3660    2.4470    0.0000 C   0  0  0  0  0  0  0  0  0  0  0  0
    3.8660    1.5810    0.0000 C   0  0  0  0  0  0  0  0  0  0  0  0
    4.3660    2.4470    0.0000 C   0  0  0  0  0  0  0  0  0  0  0  0
    2.8660    3.3130    0.0000 C   0  0  0  0  0  0  0  0  0  0  0  0
    3.8660    3.3130    0.0000 C   0  0  0  0  0  0  0  0  0  0  0  0
    2.0000    1.0810    0.0000 C   0  0  0  0  0  0  0  0  0  0  0  0
    3.7320    0.0810    0.0000 C   0  0  0  0  0  0  0  0  0  0  0  0
    3.7320   -0.9190    0.0000 C   0  0  0  0  0  0  0  0  0  0  0  0
    4.5981   -1.4190    0.0000 C   0  0  0  0  0  0  0  0  0  0  0  0
    2.8660   -1.4190    0.0000 C   0  0  0  0  0  0  0  0  0  0  0  0
    4.5981   -2.4190    0.0000 C   0  0  0  0  0  0  0  0  0  0  0  0
    5.5443   -1.1143    0.0000 C   0  0  0  0  0  0  0  0  0  0  0  0
    3.7320   -2.9190    0.0000 C   0  0  0  0  0  0  0  0  0  0  0  0
    2.8660   -2.4190    0.0000 C   0  0  0  0  0  0  0  0  0  0  0  0
    6.1279   -1.9190    0.0000 C   0  0  0  0  0  0  0  0  0  0  0  0
    1.8911    2.8456    0.0000 H   0  0  0  0  0  0  0  0  0  0  0  0
    1.8911    2.0485    0.0000 H   0  0  0  0  0  0  0  0  0  0  0  0
    3.7584    0.9704    0.0000 H   0  0  0  0  0  0  0  0  0  0  0  0
    4.4486    1.3689    0.0000 H   0  0  0  0  0  0  0  0  0  0  0  0
    2.9737    3.9236    0.0000 H   0  0  0  0  0  0  0  0  0  0  0  0
    2.2834    3.5251    0.0000 H   0  0  0  0  0  0  0  0  0  0  0  0
    4.8410    2.0485    0.0000 H   0  0  0  0  0  0  0  0  0  0  0  0
    4.8410    2.8456    0.0000 H   0  0  0  0  0  0  0  0  0  0  0  0
    4.4486    3.5251    0.0000 H   0  0  0  0  0  0  0  0  0  0  0  0
    3.7584    3.9236    0.0000 H   0  0  0  0  0  0  0  0  0  0  0  0
    1.6900    1.6179    0.0000 H   0  0  0  0  0  0  0  0  0  0  0  0
    1.4631    0.7710    0.0000 H   0  0  0  0  0  0  0  0  0  0  0  0
    2.3100    0.5441    0.0000 H   0  0  0  0  0  0  0  0  0  0  0  0
    2.3291    0.2710    0.0000 H   0  0  0  0  0  0  0  0  0  0  0  0
    2.3291   -1.1090    0.0000 H   0  0  0  0  0  0  0  0  0  0  0  0
    5.7369   -0.5249    0.0000 H   0  0  0  0  0  0  0  0  0  0  0  0
    3.7320   -3.5390    0.0000 H   0  0  0  0  0  0  0  0  0  0  0  0
    2.3291   -2.7290    0.0000 H   0  0  0  0  0  0  0  0  0  0  0  0
    5.7369   -3.3130    0.0000 H   0  0  0  0  0  0  0  0  0  0  0  0
    6.7479   -1.9190    0.0000 H   0  0  0  0  0  0  0  0  0  0  0  0
  1 11  2  0  0  0  0
  2  4  1  0  0  0  0
  2 11  1  0  0  0  0
  2 33  1  0  0  0  0
  3 15  1  0  0  0  0
  3 19  1  0  0  0  0
  3 38  1  0  0  0  0
  4  5  1  0  0  0  0
  4  6  1  0  0  0  0
  4 10  1  0  0  0  0
  5  8  1  0  0  0  0
  5 20  1  0  0  0  0
  5 21  1  0  0  0  0
  6  7  1  0  0  0  0
  6 22  1  0  0  0  0
  6 23  1  0  0  0  0
  7  9  1  0  0  0  0
  7 26  1  0  0  0  0
  7 27  1  0  0  0  0
  8  9  1  0  0  0  0
  8 24  1  0  0  0  0
  8 25  1  0  0  0  0
  9 28  1  0  0  0  0
  9 29  1  0  0  0  0
 10 30  1  0  0  0  0
 10 31  1  0  0  0  0
 10 32  1  0  0  0  0
 11 12  1  0  0  0  0
 12 13  2  0  0  0  0
 12 14  1  0  0  0  0
 13 15  1  0  0  0  0
 13 16  1  0  0  0  0
 14 18  2  0  0  0  0
 14 34  1  0  0  0  0
 15 17  2  0  0  0  0
 16 19  2  0  0  0  0
 16 35  1  0  0  0  0
 17 18  1  0  0  0  0
 17 36  1  0  0  0  0
 18 37  1  0  0  0  0
 19 39  1  0  0  0  0
M  END
> <PUBCHEM_COMPOUND_CID>
61872057

> <PUBCHEM_COMPOUND_CANONICALIZED>
1

> <PUBCHEM_CACTVS_COMPLEXITY>
336

> <PUBCHEM_CACTVS_HBOND_ACCEPTOR>
1

> <PUBCHEM_CACTVS_HBOND_DONOR>
2

> <PUBCHEM_CACTVS_ROTATABLE_BOND>
2

> <PUBCHEM_CACTVS_SUBSKEYS>
AAADceB7IAAAAAAAAAAAAAAAAAAAAWAAAAAwYAAAAAAAAFgB8AAAHgAQAAAADIjBngQ+wPLJkACoAzV3VACCgCA1AiAI2aE4ZNgIIPLAlZGEIQhglADIyYcciYCOgAAAQAASAAAAAACAACQAAAAAAAAAAA==

> <PUBCHEM_IUPAC_OPENEYE_NAME>
N-(1-methylcyclohexyl)-1H-indole-4-carboxamide

> <PUBCHEM_IUPAC_CAS_NAME>
N-(1-methylcyclohexyl)-1H-indole-4-carboxamide

> <PUBCHEM_IUPAC_NAME>
N-(1-methylcyclohexyl)-1H-indole-4-carboxamide

> <PUBCHEM_IUPAC_SYSTEMATIC_NAME>
N-(1-methylcyclohexyl)-1H-indole-4-carboxamide

> <PUBCHEM_IUPAC_TRADITIONAL_NAME>
N-(1-methylcyclohexyl)-1H-indole-4-carboxamide

> <PUBCHEM_IUPAC_INCHI>
InChI=1S/C16H20N2O/c1-16(9-3-2-4-10-16)18-15(19)13-6-5-7-14-12(13)8-11-17-14/h5-8,11,17H,2-4,9-10H2,1H3,(H,18,19)

> <PUBCHEM_IUPAC_INCHIKEY>
NYYOSWAARHDGSG-UHFFFAOYSA-N

> <PUBCHEM_XLOGP3>
3.1

> <PUBCHEM_EXACT_MASS>
256.157563

> <PUBCHEM_MOLECULAR_FORMULA>
C16H20N2O

> <PUBCHEM_MOLECULAR_WEIGHT>
256.3428

> <PUBCHEM_OPENEYE_CAN_SMILES>
CC1(CCCCC1)NC(=O)C2=C3C=CNC3=CC=C2

> <PUBCHEM_OPENEYE_ISO_SMILES>
CC1(CCCCC1)NC(=O)C2=C3C=CNC3=CC=C2

> <PUBCHEM_CACTVS_TPSA>
44.9

> <PUBCHEM_MONOISOTOPIC_WEIGHT>
256.157563

> <PUBCHEM_TOTAL_CHARGE>
0

> <PUBCHEM_HEAVY_ATOM_COUNT>
19

> <PUBCHEM_ATOM_DEF_STEREO_COUNT>
0

> <PUBCHEM_ATOM_UDEF_STEREO_COUNT>
0

> <PUBCHEM_BOND_DEF_STEREO_COUNT>
0

> <PUBCHEM_BOND_UDEF_STEREO_COUNT>
0

> <PUBCHEM_ISOTOPIC_ATOM_COUNT>
0

> <PUBCHEM_COMPONENT_COUNT>
1

> <PUBCHEM_CACTVS_TAUTO_COUNT>
5

> <PUBCHEM_COORDINATE_TYPE>
1
5
255

> <PUBCHEM_BONDANNOTATIONS>
12  13  8
12  14  8
13  15  8
13  16  8
14  18  8
15  17  8
16  19  8
17  18  8
3  15  8
3  19  8

$$$$
61872410
  -OEChem-11301218212D

 41 42  0     0  0  0  0  0  0999 V2000
    7.1962    4.5000    0.0000 Cl  0  0  0  0  0  0  0  0  0  0  0  0
    2.8660    2.0000    0.0000 O   0  0  0  0  0  0  0  0  0  0  0  0
    3.7320    0.5000    0.0000 N   0  0  0  0  0  0  0  0  0  0  0  0
    2.8660   -4.0000    0.0000 C   0  0  0  0  0  0  0  0  0  0  0  0
    2.8660   -3.0000    0.0000 C   0  0  0  0  0  0  0  0  0  0  0  0
    2.8660   -1.0000    0.0000 C   0  0  0  0  0  0  0  0  0  0  0  0
    2.0000   -2.5000    0.0000 C   0  0  0  0  0  0  0  0  0  0  0  0
    3.7320   -2.5000    0.0000 C   0  0  0  0  0  0  0  0  0  0  0  0
    2.0000   -4.5000    0.0000 C   0  0  0  0  0  0  0  0  0  0  0  0
    3.7320   -4.5000    0.0000 C   0  0  0  0  0  0  0  0  0  0  0  0
    2.8660    0.0000    0.0000 C   0  0  0  0  0  0  0  0  0  0  0  0
    2.0000   -1.5000    0.0000 C   0  0  0  0  0  0  0  0  0  0  0  0
    3.7320   -1.5000    0.0000 C   0  0  0  0  0  0  0  0  0  0  0  0
    4.5981    2.0000    0.0000 C   0  0  0  0  0  0  0  0  0  0  0  0
    3.7320    1.5000    0.0000 C   0  0  0  0  0  0  0  0  0  0  0  0
    4.5981    3.0000    0.0000 C   0  0  0  0  0  0  0  0  0  0  0  0
    5.4641    1.5000    0.0000 C   0  0  0  0  0  0  0  0  0  0  0  0
    6.3301    3.0000    0.0000 C   0  0  0  0  0  0  0  0  0  0  0  0
    5.4641    3.5000    0.0000 C   0  0  0  0  0  0  0  0  0  0  0  0
    6.3301    2.0000    0.0000 C   0  0  0  0  0  0  0  0  0  0  0  0
    7.1962    3.5000    0.0000 C   0  0  0  0  0  0  0  0  0  0  0  0
    2.8660   -4.6200    0.0000 H   0  0  0  0  0  0  0  0  0  0  0  0
    1.4631   -2.8100    0.0000 H   0  0  0  0  0  0  0  0  0  0  0  0
    4.2690   -2.8100    0.0000 H   0  0  0  0  0  0  0  0  0  0  0  0
    3.4220   -5.0369    0.0000 H   0  0  0  0  0  0  0  0  0  0  0  0
    1.6900   -3.9631    0.0000 H   0  0  0  0  0  0  0  0  0  0  0  0
    1.4631   -4.8100    0.0000 H   0  0  0  0  0  0  0  0  0  0  0  0
    2.3100   -5.0369    0.0000 H   0  0  0  0  0  0  0  0  0  0  0  0
    4.2690   -4.8100    0.0000 H   0  0  0  0  0  0  0  0  0  0  0  0
    4.0420   -3.9631    0.0000 H   0  0  0  0  0  0  0  0  0  0  0  0
    2.6540    0.5826    0.0000 H   0  0  0  0  0  0  0  0  0  0  0  0
    2.2554   -0.1077    0.0000 H   0  0  0  0  0  0  0  0  0  0  0  0
    1.4631   -1.1900    0.0000 H   0  0  0  0  0  0  0  0  0  0  0  0
    4.2690   -1.1900    0.0000 H   0  0  0  0  0  0  0  0  0  0  0  0
    4.2690    0.1900    0.0000 H   0  0  0  0  0  0  0  0  0  0  0  0
    4.0611    3.3100    0.0000 H   0  0  0  0  0  0  0  0  0  0  0  0
    5.4641    0.8800    0.0000 H   0  0  0  0  0  0  0  0  0  0  0  0
    5.4641    4.1200    0.0000 H   0  0  0  0  0  0  0  0  0  0  0  0
    6.8671    1.6900    0.0000 H   0  0  0  0  0  0  0  0  0  0  0  0
    7.4082    2.9174    0.0000 H   0  0  0  0  0  0  0  0  0  0  0  0
    7.8067    3.6077    0.0000 H   0  0  0  0  0  0  0  0  0  0  0  0
  1 21  1  0  0  0  0
  2 15  2  0  0  0  0
  3 11  1  0  0  0  0
  3 15  1  0  0  0  0
  3 35  1  0  0  0  0
  4  5  1  0  0  0  0
  4  9  1  0  0  0  0
  4 10  1  0  0  0  0
  4 22  1  0  0  0  0
  5  7  2  0  0  0  0
  5  8  1  0  0  0  0
  6 11  1  0  0  0  0
  6 12  2  0  0  0  0
  6 13  1  0  0  0  0
  7 12  1  0  0  0  0
  7 23  1  0  0  0  0
  8 13  2  0  0  0  0
  8 24  1  0  0  0  0
  9 26  1  0  0  0  0
  9 27  1  0  0  0  0
  9 28  1  0  0  0  0
 10 25  1  0  0  0  0
 10 29  1  0  0  0  0
 10 30  1  0  0  0  0
 11 31  1  0  0  0  0
 11 32  1  0  0  0  0
 12 33  1  0  0  0  0
 13 34  1  0  0  0  0
 14 15  1  0  0  0  0
 14 16  2  0  0  0  0
 14 17  1  0  0  0  0
 16 19  1  0  0  0  0
 16 36  1  0  0  0  0
 17 20  2  0  0  0  0
 17 37  1  0  0  0  0
 18 19  2  0  0  0  0
 18 20  1  0  0  0  0
 18 21  1  0  0  0  0
 19 38  1  0  0  0  0
 20 39  1  0  0  0  0
 21 40  1  0  0  0  0
 21 41  1  0  0  0  0
M  END
> <PUBCHEM_COMPOUND_CID>
61872410

> <PUBCHEM_COMPOUND_CANONICALIZED>
1

> <PUBCHEM_CACTVS_COMPLEXITY>
315

> <PUBCHEM_CACTVS_HBOND_ACCEPTOR>
1

> <PUBCHEM_CACTVS_HBOND_DONOR>
1

> <PUBCHEM_CACTVS_ROTATABLE_BOND>
5

> <PUBCHEM_CACTVS_SUBSKEYS>
AAADceB6IAAEAAAAAAAAAAAAAAAAAAAAAAAwYAAAAAAAAAABQAAAHgIQAAAADQPBmEQyAILAAACIAiFSEACCAAAkAAAIiIEIBsgIIDKBlRGEIQhghgCIiYcYiMCOwAAAAAAAAACAAAAAAAAAAAAAAAAAAA==

> <PUBCHEM_IUPAC_OPENEYE_NAME>
4-(chloromethyl)-N-[(4-isopropylphenyl)methyl]benzamide

> <PUBCHEM_IUPAC_CAS_NAME>
4-(chloromethyl)-N-[(4-propan-2-ylphenyl)methyl]benzamide

> <PUBCHEM_IUPAC_NAME>
4-(chloromethyl)-N-[(4-propan-2-ylphenyl)methyl]benzamide

> <PUBCHEM_IUPAC_SYSTEMATIC_NAME>
4-(chloromethyl)-N-[(4-propan-2-ylphenyl)methyl]benzamide

> <PUBCHEM_IUPAC_TRADITIONAL_NAME>
4-(chloromethyl)-N-(4-isopropylbenzyl)benzamide

> <PUBCHEM_IUPAC_INCHI>
InChI=1S/C18H20ClNO/c1-13(2)16-7-5-15(6-8-16)12-20-18(21)17-9-3-14(11-19)4-10-17/h3-10,13H,11-12H2,1-2H3,(H,20,21)

> <PUBCHEM_IUPAC_INCHIKEY>
NAQWIMKTIJDZLG-UHFFFAOYSA-N

> <PUBCHEM_XLOGP3>
3.7

> <PUBCHEM_EXACT_MASS>
301.123342

> <PUBCHEM_MOLECULAR_FORMULA>
C18H20ClNO

> <PUBCHEM_MOLECULAR_WEIGHT>
301.8105

> <PUBCHEM_OPENEYE_CAN_SMILES>
CC(C)C1=CC=C(C=C1)CNC(=O)C2=CC=C(C=C2)CCl

> <PUBCHEM_OPENEYE_ISO_SMILES>
CC(C)C1=CC=C(C=C1)CNC(=O)C2=CC=C(C=C2)CCl

> <PUBCHEM_CACTVS_TPSA>
29.1

> <PUBCHEM_MONOISOTOPIC_WEIGHT>
301.123342

> <PUBCHEM_TOTAL_CHARGE>
0

> <PUBCHEM_HEAVY_ATOM_COUNT>
21

> <PUBCHEM_ATOM_DEF_STEREO_COUNT>
0

> <PUBCHEM_ATOM_UDEF_STEREO_COUNT>
0

> <PUBCHEM_BOND_DEF_STEREO_COUNT>
0

> <PUBCHEM_BOND_UDEF_STEREO_COUNT>
0

> <PUBCHEM_ISOTOPIC_ATOM_COUNT>
0

> <PUBCHEM_COMPONENT_COUNT>
1

> <PUBCHEM_CACTVS_TAUTO_COUNT>
2

> <PUBCHEM_COORDINATE_TYPE>
1
5
255

> <PUBCHEM_BONDANNOTATIONS>
14  16  8
14  17  8
16  19  8
17  20  8
18  19  8
18  20  8
5  7  8
5  8  8
6  12  8
6  13  8
7  12  8
8  13  8

$$$$
61873243
  -OEChem-11301218212D

 32 33  0     0  0  0  0  0  0999 V2000
    3.7320    1.8988    0.0000 N   0  0  0  0  0  0  0  0  0  0  0  0
    2.8660   -2.6012    0.0000 C   0  0  0  0  0  0  0  0  0  0  0  0
    2.8660   -1.6012    0.0000 C   0  0  0  0  0  0  0  0  0  0  0  0
    2.8660    0.3988    0.0000 C   0  0  0  0  0  0  0  0  0  0  0  0
    2.8660    1.3988    0.0000 C   0  0  0  0  0  0  0  0  0  0  0  0
    2.0000   -1.1012    0.0000 C   0  0  0  0  0  0  0  0  0  0  0  0
    3.7320   -1.1012    0.0000 C   0  0  0  0  0  0  0  0  0  0  0  0
    2.0000   -0.1012    0.0000 C   0  0  0  0  0  0  0  0  0  0  0  0
    3.7320   -0.1012    0.0000 C   0  0  0  0  0  0  0  0  0  0  0  0
    2.0000   -3.1012    0.0000 C   0  0  0  0  0  0  0  0  0  0  0  0
    3.7320   -3.1012    0.0000 C   0  0  0  0  0  0  0  0  0  0  0  0
    4.6456    1.4921    0.0000 C   0  0  0  0  0  0  0  0  0  0  0  0
    3.8366    2.8933    0.0000 C   0  0  0  0  0  0  0  0  0  0  0  0
    5.3147    2.2352    0.0000 C   0  0  0  0  0  0  0  0  0  0  0  0
    4.8147    3.1012    0.0000 C   0  0  0  0  0  0  0  0  0  0  0  0
    2.8660   -3.2212    0.0000 H   0  0  0  0  0  0  0  0  0  0  0  0
    2.6540    1.9814    0.0000 H   0  0  0  0  0  0  0  0  0  0  0  0
    2.2554    1.2911    0.0000 H   0  0  0  0  0  0  0  0  0  0  0  0
    1.4631   -1.4112    0.0000 H   0  0  0  0  0  0  0  0  0  0  0  0
    4.2690   -1.4112    0.0000 H   0  0  0  0  0  0  0  0  0  0  0  0
    1.4631    0.2088    0.0000 H   0  0  0  0  0  0  0  0  0  0  0  0
    4.2690    0.2088    0.0000 H   0  0  0  0  0  0  0  0  0  0  0  0
    1.6900   -2.5643    0.0000 H   0  0  0  0  0  0  0  0  0  0  0  0
    1.4631   -3.4112    0.0000 H   0  0  0  0  0  0  0  0  0  0  0  0
    3.4220   -3.6382    0.0000 H   0  0  0  0  0  0  0  0  0  0  0  0
    4.2690   -3.4112    0.0000 H   0  0  0  0  0  0  0  0  0  0  0  0
    4.0420   -2.5643    0.0000 H   0  0  0  0  0  0  0  0  0  0  0  0
    2.3100   -3.6382    0.0000 H   0  0  0  0  0  0  0  0  0  0  0  0
    4.7745    0.8856    0.0000 H   0  0  0  0  0  0  0  0  0  0  0  0
    3.3758    3.3082    0.0000 H   0  0  0  0  0  0  0  0  0  0  0  0
    5.9313    2.1704    0.0000 H   0  0  0  0  0  0  0  0  0  0  0  0
    5.0669    3.6676    0.0000 H   0  0  0  0  0  0  0  0  0  0  0  0
  1  5  1  0  0  0  0
  1 12  1  0  0  0  0
  1 13  1  0  0  0  0
  2  3  1  0  0  0  0
  2 10  1  0  0  0  0
  2 11  1  0  0  0  0
  2 16  1  0  0  0  0
  3  6  2  0  0  0  0
  3  7  1  0  0  0  0
  4  5  1  0  0  0  0
  4  8  2  0  0  0  0
  4  9  1  0  0  0  0
  5 17  1  0  0  0  0
  5 18  1  0  0  0  0
  6  8  1  0  0  0  0
  6 19  1  0  0  0  0
  7  9  2  0  0  0  0
  7 20  1  0  0  0  0
  8 21  1  0  0  0  0
  9 22  1  0  0  0  0
 10 23  1  0  0  0  0
 10 24  1  0  0  0  0
 10 28  1  0  0  0  0
 11 25  1  0  0  0  0
 11 26  1  0  0  0  0
 11 27  1  0  0  0  0
 12 14  2  0  0  0  0
 12 29  1  0  0  0  0
 13 15  2  0  0  0  0
 13 30  1  0  0  0  0
 14 15  1  0  0  0  0
 14 31  1  0  0  0  0
 15 32  1  0  0  0  0
M  END
> <PUBCHEM_COMPOUND_CID>
61873243

> <PUBCHEM_COMPOUND_CANONICALIZED>
1

> <PUBCHEM_CACTVS_COMPLEXITY>
174

> <PUBCHEM_CACTVS_HBOND_ACCEPTOR>
0

> <PUBCHEM_CACTVS_HBOND_DONOR>
0

> <PUBCHEM_CACTVS_ROTATABLE_BOND>
3

> <PUBCHEM_CACTVS_SUBSKEYS>
AAADceByAAAAAAAAAAAAAAAAAAAAAWAAAAAwAAAAAAAAAAABwAAAHAAAAAAADQDBGgQ+gJMMEACgAjBnRACCgCAxAiAI2CA4ZJgIIOLAkZGEIAhggADIyAcQgMAOwAAAAAAAAACAAAAAAAAAAAAAAAAAAA==

> <PUBCHEM_IUPAC_OPENEYE_NAME>
1-[(4-isopropylphenyl)methyl]pyrrole

> <PUBCHEM_IUPAC_CAS_NAME>
1-[(4-propan-2-ylphenyl)methyl]pyrrole

> <PUBCHEM_IUPAC_NAME>
1-[(4-propan-2-ylphenyl)methyl]pyrrole

> <PUBCHEM_IUPAC_SYSTEMATIC_NAME>
1-[(4-propan-2-ylphenyl)methyl]pyrrole

> <PUBCHEM_IUPAC_TRADITIONAL_NAME>
1-(4-isopropylbenzyl)pyrrole

> <PUBCHEM_IUPAC_INCHI>
InChI=1S/C14H17N/c1-12(2)14-7-5-13(6-8-14)11-15-9-3-4-10-15/h3-10,12H,11H2,1-2H3

> <PUBCHEM_IUPAC_INCHIKEY>
QFFDJYPEDDERGY-UHFFFAOYSA-N

> <PUBCHEM_XLOGP3>
3.8

> <PUBCHEM_EXACT_MASS>
199.1361

> <PUBCHEM_MOLECULAR_FORMULA>
C14H17N

> <PUBCHEM_MOLECULAR_WEIGHT>
199.29148

> <PUBCHEM_OPENEYE_CAN_SMILES>
CC(C)C1=CC=C(C=C1)CN2C=CC=C2

> <PUBCHEM_OPENEYE_ISO_SMILES>
CC(C)C1=CC=C(C=C1)CN2C=CC=C2

> <PUBCHEM_CACTVS_TPSA>
4.9

> <PUBCHEM_MONOISOTOPIC_WEIGHT>
199.1361

> <PUBCHEM_TOTAL_CHARGE>
0

> <PUBCHEM_HEAVY_ATOM_COUNT>
15

> <PUBCHEM_ATOM_DEF_STEREO_COUNT>
0

> <PUBCHEM_ATOM_UDEF_STEREO_COUNT>
0

> <PUBCHEM_BOND_DEF_STEREO_COUNT>
0

> <PUBCHEM_BOND_UDEF_STEREO_COUNT>
0

> <PUBCHEM_ISOTOPIC_ATOM_COUNT>
0

> <PUBCHEM_COMPONENT_COUNT>
1

> <PUBCHEM_CACTVS_TAUTO_COUNT>
1

> <PUBCHEM_COORDINATE_TYPE>
1
5
255

> <PUBCHEM_BONDANNOTATIONS>
1  12  8
1  13  8
12  14  8
13  15  8
14  15  8
3  6  8
3  7  8
4  8  8
4  9  8
6  8  8
7  9  8

$$$$
