46681312
  -OEChem-11301217572D

 48 49  0     0  0  0  0  0  0999 V2000
   10.6603    6.5000    0.0000 F   0  0  0  0  0  0  0  0  0  0  0  0
   11.6603    5.5000    0.0000 F   0  0  0  0  0  0  0  0  0  0  0  0
    9.6602    5.5000    0.0000 F   0  0  0  0  0  0  0  0  0  0  0  0
    9.7942    4.0000    0.0000 O   0  0  0  0  0  0  0  0  0  0  0  0
    6.3301    0.0000    0.0000 O   0  0  0  0  0  0  0  0  0  0  0  0
    4.5981   -6.0000    0.0000 O   0  0  0  0  0  0  0  0  0  0  0  0
    5.4641    1.5000    0.0000 O   0  0  0  0  0  0  0  0  0  0  0  0
    6.3301   -2.0000    0.0000 O   0  0  0  0  0  0  0  0  0  0  0  0
    2.0000   -3.5000    0.0000 O   0  5  0  0  0  0  0  0  0  0  0  0
    2.8660   -2.0000    0.0000 O   0  0  0  0  0  0  0  0  0  0  0  0
    4.5981   -2.0000    0.0000 N   0  0  0  0  0  0  0  0  0  0  0  0
    2.8660   -3.0000    0.0000 N   0  3  0  0  0  0  0  0  0  0  0  0
    8.9282    2.5000    0.0000 C   0  0  0  0  0  0  0  0  0  0  0  0
    9.7942    3.0000    0.0000 C   0  0  0  0  0  0  0  0  0  0  0  0
    7.1962    1.5000    0.0000 C   0  0  0  0  0  0  0  0  0  0  0  0
    4.5981   -3.0000    0.0000 C   0  0  0  0  0  0  0  0  0  0  0  0
    8.0622    3.0000    0.0000 C   0  0  0  0  0  0  0  0  0  0  0  0
    8.9282    1.5000    0.0000 C   0  0  0  0  0  0  0  0  0  0  0  0
    7.1962    2.5000    0.0000 C   0  0  0  0  0  0  0  0  0  0  0  0
    8.0622    1.0000    0.0000 C   0  0  0  0  0  0  0  0  0  0  0  0
    3.7320   -3.5000    0.0000 C   0  0  0  0  0  0  0  0  0  0  0  0
    5.4641   -3.5000    0.0000 C   0  0  0  0  0  0  0  0  0  0  0  0
    3.7320   -4.5000    0.0000 C   0  0  0  0  0  0  0  0  0  0  0  0
    4.5981   -5.0000    0.0000 C   0  0  0  0  0  0  0  0  0  0  0  0
    5.4641   -0.5000    0.0000 C   0  0  0  0  0  0  0  0  0  0  0  0
    6.3301    1.0000    0.0000 C   0  0  0  0  0  0  0  0  0  0  0  0
    5.4641   -4.5000    0.0000 C   0  0  0  0  0  0  0  0  0  0  0  0
    5.4641   -1.5000    0.0000 C   0  0  0  0  0  0  0  0  0  0  0  0
   10.6603    4.5000    0.0000 C   0  0  0  0  0  0  0  0  0  0  0  0
   10.6603    5.5000    0.0000 C   0  0  0  0  0  0  0  0  0  0  0  0
    5.4641   -6.5000    0.0000 C   0  0  0  0  0  0  0  0  0  0  0  0
   10.0063    2.4174    0.0000 H   0  0  0  0  0  0  0  0  0  0  0  0
   10.4048    3.1077    0.0000 H   0  0  0  0  0  0  0  0  0  0  0  0
    8.0622    3.6200    0.0000 H   0  0  0  0  0  0  0  0  0  0  0  0
    9.4651    1.1900    0.0000 H   0  0  0  0  0  0  0  0  0  0  0  0
    6.6592    2.8100    0.0000 H   0  0  0  0  0  0  0  0  0  0  0  0
    8.0622    0.3800    0.0000 H   0  0  0  0  0  0  0  0  0  0  0  0
    6.0010   -3.1900    0.0000 H   0  0  0  0  0  0  0  0  0  0  0  0
    4.0611   -1.6900    0.0000 H   0  0  0  0  0  0  0  0  0  0  0  0
    3.1951   -4.8100    0.0000 H   0  0  0  0  0  0  0  0  0  0  0  0
    5.2520    0.0826    0.0000 H   0  0  0  0  0  0  0  0  0  0  0  0
    4.8535   -0.6077    0.0000 H   0  0  0  0  0  0  0  0  0  0  0  0
    6.0010   -4.8100    0.0000 H   0  0  0  0  0  0  0  0  0  0  0  0
   10.8723    3.9174    0.0000 H   0  0  0  0  0  0  0  0  0  0  0  0
   11.2708    4.6077    0.0000 H   0  0  0  0  0  0  0  0  0  0  0  0
    5.1541   -7.0369    0.0000 H   0  0  0  0  0  0  0  0  0  0  0  0
    6.0010   -6.8100    0.0000 H   0  0  0  0  0  0  0  0  0  0  0  0
    5.7741   -5.9631    0.0000 H   0  0  0  0  0  0  0  0  0  0  0  0
  1 30  1  0  0  0  0
  2 30  1  0  0  0  0
  3 30  1  0  0  0  0
  4 14  1  0  0  0  0
  4 29  1  0  0  0  0
  5 25  1  0  0  0  0
  5 26  1  0  0  0  0
  6 24  1  0  0  0  0
  6 31  1  0  0  0  0
  7 26  2  0  0  0  0
  8 28  2  0  0  0  0
  9 12  1  0  0  0  0
 10 12  2  0  0  0  0
 11 16  1  0  0  0  0
 11 28  1  0  0  0  0
 11 39  1  0  0  0  0
 12 21  1  0  0  0  0
 13 14  1  0  0  0  0
 13 17  2  0  0  0  0
 13 18  1  0  0  0  0
 14 32  1  0  0  0  0
 14 33  1  0  0  0  0
 15 19  2  0  0  0  0
 15 20  1  0  0  0  0
 15 26  1  0  0  0  0
 16 21  2  0  0  0  0
 16 22  1  0  0  0  0
 17 19  1  0  0  0  0
 17 34  1  0  0  0  0
 18 20  2  0  0  0  0
 18 35  1  0  0  0  0
 19 36  1  0  0  0  0
 20 37  1  0  0  0  0
 21 23  1  0  0  0  0
 22 27  2  0  0  0  0
 22 38  1  0  0  0  0
 23 24  2  0  0  0  0
 23 40  1  0  0  0  0
 24 27  1  0  0  0  0
 25 28  1  0  0  0  0
 25 41  1  0  0  0  0
 25 42  1  0  0  0  0
 27 43  1  0  0  0  0
 29 30  1  0  0  0  0
 29 44  1  0  0  0  0
 29 45  1  0  0  0  0
 31 46  1  0  0  0  0
 31 47  1  0  0  0  0
 31 48  1  0  0  0  0
M  CHG  2   9  -1  12   1
M  END
> <PUBCHEM_COMPOUND_CID>
46681312

> <PUBCHEM_COMPOUND_CANONICALIZED>
1

> <PUBCHEM_CACTVS_COMPLEXITY>
619

> <PUBCHEM_CACTVS_HBOND_ACCEPTOR>
10

> <PUBCHEM_CACTVS_HBOND_DONOR>
1

> <PUBCHEM_CACTVS_ROTATABLE_BOND>
9

> <PUBCHEM_CACTVS_SUBSKEYS>
AAADceB7OYAAAAAAAAAAAAAAAAAAAAAAAAAwYAAAAAAAAAABQAAAHwAUAAAADAyhmBIyzoLQRACJAiXSWwKCCAAlIgAoiAFGfMoOZjLEtZ+XMShm1JnY6Ye42DGOQEAAAgAAACCAgAAEAAAAQAAAAAAAAA==

> <PUBCHEM_IUPAC_OPENEYE_NAME>
[2-(4-methoxy-2-nitro-anilino)-2-oxo-ethyl] 4-(2,2,2-trifluoroethoxymethyl)benzoate

> <PUBCHEM_IUPAC_CAS_NAME>
4-(2,2,2-trifluoroethoxymethyl)benzoic acid [2-(4-methoxy-2-nitroanilino)-2-oxoethyl] ester

> <PUBCHEM_IUPAC_NAME>
[2-(4-methoxy-2-nitroanilino)-2-oxoethyl] 4-(2,2,2-trifluoroethoxymethyl)benzoate

> <PUBCHEM_IUPAC_SYSTEMATIC_NAME>
[2-[(4-methoxy-2-nitro-phenyl)amino]-2-oxidanylidene-ethyl] 4-[2,2,2-tris(fluoranyl)ethoxymethyl]benzoate

> <PUBCHEM_IUPAC_TRADITIONAL_NAME>
4-(2,2,2-trifluoroethoxymethyl)benzoic acid [2-keto-2-(4-methoxy-2-nitro-anilino)ethyl] ester

> <PUBCHEM_IUPAC_INCHI>
InChI=1S/C19H17F3N2O7/c1-29-14-6-7-15(16(8-14)24(27)28)23-17(25)10-31-18(26)13-4-2-12(3-5-13)9-30-11-19(20,21)22/h2-8H,9-11H2,1H3,(H,23,25)

> <PUBCHEM_IUPAC_INCHIKEY>
KYSFLGSDQRRPAT-UHFFFAOYSA-N

> <PUBCHEM_XLOGP3>
3.4

> <PUBCHEM_EXACT_MASS>
442.098786

> <PUBCHEM_MOLECULAR_FORMULA>
C19H17F3N2O7

> <PUBCHEM_MOLECULAR_WEIGHT>
442.34269

> <PUBCHEM_OPENEYE_CAN_SMILES>
COC1=CC(=C(C=C1)NC(=O)COC(=O)C2=CC=C(C=C2)COCC(F)(F)F)[N+](=O)[O-]

> <PUBCHEM_OPENEYE_ISO_SMILES>
COC1=CC(=C(C=C1)NC(=O)COC(=O)C2=CC=C(C=C2)COCC(F)(F)F)[N+](=O)[O-]

> <PUBCHEM_CACTVS_TPSA>
120

> <PUBCHEM_MONOISOTOPIC_WEIGHT>
442.098786

> <PUBCHEM_TOTAL_CHARGE>
0

> <PUBCHEM_HEAVY_ATOM_COUNT>
31

> <PUBCHEM_ATOM_DEF_STEREO_COUNT>
0

> <PUBCHEM_ATOM_UDEF_STEREO_COUNT>
0

> <PUBCHEM_BOND_DEF_STEREO_COUNT>
0

> <PUBCHEM_BOND_UDEF_STEREO_COUNT>
0

> <PUBCHEM_ISOTOPIC_ATOM_COUNT>
0

> <PUBCHEM_COMPONENT_COUNT>
1

> <PUBCHEM_CACTVS_TAUTO_COUNT>
3

> <PUBCHEM_COORDINATE_TYPE>
1
5
255

> <PUBCHEM_BONDANNOTATIONS>
13  17  8
13  18  8
15  19  8
15  20  8
16  21  8
16  22  8
17  19  8
18  20  8
21  23  8
22  27  8
23  24  8
24  27  8

$$$$
46693038
  -OEChem-11301217582D

 45 47  0     1  0  0  0  0  0999 V2000
    8.4993    4.1572    0.0000 Cl  0  0  0  0  0  0  0  0  0  0  0  0
    6.6353   -1.5460    0.0000 O   0  0  0  0  0  0  0  0  0  0  0  0
    6.2781    0.1489    0.0000 N   0  0  0  0  0  0  0  0  0  0  0  0
    4.6783   -3.5678    0.0000 N   0  0  0  0  0  0  0  0  0  0  0  0
    7.2566    0.3551    0.0000 C   0  0  3  0  0  0  0  0  0  0  0  0
    7.9244   -0.3892    0.0000 C   0  0  0  0  0  0  0  0  0  0  0  0
    7.5673    1.3056    0.0000 C   0  0  0  0  0  0  0  0  0  0  0  0
    8.9030   -0.1830    0.0000 C   0  0  0  0  0  0  0  0  0  0  0  0
    7.6138   -1.3397    0.0000 C   0  0  0  0  0  0  0  0  0  0  0  0
    4.9889   -1.0079    0.0000 C   0  0  0  0  0  0  0  0  0  0  0  0
    5.9674   -0.8016    0.0000 C   0  0  0  0  0  0  0  0  0  0  0  0
    4.6783   -1.9584    0.0000 C   0  0  0  0  0  0  0  0  0  0  0  0
    3.7320   -2.2631    0.0000 C   0  0  0  0  0  0  0  0  0  0  0  0
    8.5458    1.5118    0.0000 C   0  0  0  0  0  0  0  0  0  0  0  0
    6.8994    2.0499    0.0000 C   0  0  0  0  0  0  0  0  0  0  0  0
    3.7320   -3.2631    0.0000 C   0  0  0  0  0  0  0  0  0  0  0  0
    5.2619   -2.7631    0.0000 C   0  0  0  0  0  0  0  0  0  0  0  0
    2.8660   -1.7631    0.0000 C   0  0  0  0  0  0  0  0  0  0  0  0
    8.8564    2.4623    0.0000 C   0  0  0  0  0  0  0  0  0  0  0  0
    7.2101    3.0004    0.0000 C   0  0  0  0  0  0  0  0  0  0  0  0
    2.8660   -3.7631    0.0000 C   0  0  0  0  0  0  0  0  0  0  0  0
    8.1886    3.2066    0.0000 C   0  0  0  0  0  0  0  0  0  0  0  0
    2.0000   -2.2631    0.0000 C   0  0  0  0  0  0  0  0  0  0  0  0
    2.0000   -3.2631    0.0000 C   0  0  0  0  0  0  0  0  0  0  0  0
    7.0640   -0.2342    0.0000 H   0  0  0  0  0  0  0  0  0  0  0  0
    8.3385   -0.8507    0.0000 H   0  0  0  0  0  0  0  0  0  0  0  0
    5.8640    0.6103    0.0000 H   0  0  0  0  0  0  0  0  0  0  0  0
    9.0308   -0.7897    0.0000 H   0  0  0  0  0  0  0  0  0  0  0  0
    7.0245   -1.1471    0.0000 H   0  0  0  0  0  0  0  0  0  0  0  0
    7.4212   -1.9290    0.0000 H   0  0  0  0  0  0  0  0  0  0  0  0
    8.2031   -1.5323    0.0000 H   0  0  0  0  0  0  0  0  0  0  0  0
    9.5096   -0.0551    0.0000 H   0  0  0  0  0  0  0  0  0  0  0  0
    8.7751    0.4237    0.0000 H   0  0  0  0  0  0  0  0  0  0  0  0
    4.9684   -0.3882    0.0000 H   0  0  0  0  0  0  0  0  0  0  0  0
    4.3751   -0.9205    0.0000 H   0  0  0  0  0  0  0  0  0  0  0  0
    8.9598    1.0504    0.0000 H   0  0  0  0  0  0  0  0  0  0  0  0
    6.2928    1.9221    0.0000 H   0  0  0  0  0  0  0  0  0  0  0  0
    5.8819   -2.7631    0.0000 H   0  0  0  0  0  0  0  0  0  0  0  0
    4.8709   -4.1572    0.0000 H   0  0  0  0  0  0  0  0  0  0  0  0
    2.8660   -1.1431    0.0000 H   0  0  0  0  0  0  0  0  0  0  0  0
    9.4631    2.5902    0.0000 H   0  0  0  0  0  0  0  0  0  0  0  0
    6.7960    3.4619    0.0000 H   0  0  0  0  0  0  0  0  0  0  0  0
    2.8660   -4.3831    0.0000 H   0  0  0  0  0  0  0  0  0  0  0  0
    1.4631   -1.9531    0.0000 H   0  0  0  0  0  0  0  0  0  0  0  0
    1.4631   -3.5731    0.0000 H   0  0  0  0  0  0  0  0  0  0  0  0
  1 22  1  0  0  0  0
  2 11  2  0  0  0  0
  3  5  1  0  0  0  0
  3 11  1  0  0  0  0
  3 27  1  0  0  0  0
  4 16  1  0  0  0  0
  4 17  1  0  0  0  0
  4 39  1  0  0  0  0
  5  6  1  0  0  0  0
  5  7  1  0  0  0  0
  5 25  1  0  0  0  0
  6  8  1  0  0  0  0
  6  9  1  0  0  0  0
  6 26  1  0  0  0  0
  7 14  2  0  0  0  0
  7 15  1  0  0  0  0
  8 28  1  0  0  0  0
  8 32  1  0  0  0  0
  8 33  1  0  0  0  0
  9 29  1  0  0  0  0
  9 30  1  0  0  0  0
  9 31  1  0  0  0  0
 10 11  1  0  0  0  0
 10 12  1  0  0  0  0
 10 34  1  0  0  0  0
 10 35  1  0  0  0  0
 12 13  1  0  0  0  0
 12 17  2  0  0  0  0
 13 16  1  0  0  0  0
 13 18  2  0  0  0  0
 14 19  1  0  0  0  0
 14 36  1  0  0  0  0
 15 20  2  0  0  0  0
 15 37  1  0  0  0  0
 16 21  2  0  0  0  0
 17 38  1  0  0  0  0
 18 23  1  0  0  0  0
 18 40  1  0  0  0  0
 19 22  2  0  0  0  0
 19 41  1  0  0  0  0
 20 22  1  0  0  0  0
 20 42  1  0  0  0  0
 21 24  1  0  0  0  0
 21 43  1  0  0  0  0
 23 24  2  0  0  0  0
 23 44  1  0  0  0  0
 24 45  1  0  0  0  0
M  END
> <PUBCHEM_COMPOUND_CID>
46693038

> <PUBCHEM_COMPOUND_CANONICALIZED>
1

> <PUBCHEM_CACTVS_COMPLEXITY>
420

> <PUBCHEM_CACTVS_HBOND_ACCEPTOR>
1

> <PUBCHEM_CACTVS_HBOND_DONOR>
2

> <PUBCHEM_CACTVS_ROTATABLE_BOND>
5

> <PUBCHEM_CACTVS_SUBSKEYS>
AAADceB7IAAEAAAAAAAAAAAAAAAAAWAAAAAwYAAAAAAAAFgB9AAAHgIQAAAADSrBniQ+wPLJkACoAzV3VACCgCAxByAI2aE4ZpgIIPLBl5GEIAhglgDIyAccicCehAAAAAACAAAIAAAAAAQAAAAAAAAAAA==

> <PUBCHEM_IUPAC_OPENEYE_NAME>
N-[1-(4-chlorophenyl)-2-methyl-propyl]-2-(1H-indol-3-yl)acetamide

> <PUBCHEM_IUPAC_CAS_NAME>
N-[1-(4-chlorophenyl)-2-methylpropyl]-2-(1H-indol-3-yl)acetamide

> <PUBCHEM_IUPAC_NAME>
N-[1-(4-chlorophenyl)-2-methylpropyl]-2-(1H-indol-3-yl)acetamide

> <PUBCHEM_IUPAC_SYSTEMATIC_NAME>
N-[1-(4-chlorophenyl)-2-methyl-propyl]-2-(1H-indol-3-yl)ethanamide

> <PUBCHEM_IUPAC_TRADITIONAL_NAME>
N-[1-(4-chlorophenyl)-2-methyl-propyl]-2-(1H-indol-3-yl)acetamide

> <PUBCHEM_IUPAC_INCHI>
InChI=1S/C20H21ClN2O/c1-13(2)20(14-7-9-16(21)10-8-14)23-19(24)11-15-12-22-18-6-4-3-5-17(15)18/h3-10,12-13,20,22H,11H2,1-2H3,(H,23,24)

> <PUBCHEM_IUPAC_INCHIKEY>
VPLWJSYIEDRNRE-UHFFFAOYSA-N

> <PUBCHEM_XLOGP3>
4.6

> <PUBCHEM_EXACT_MASS>
340.134241

> <PUBCHEM_MOLECULAR_FORMULA>
C20H21ClN2O

> <PUBCHEM_MOLECULAR_WEIGHT>
340.84654

> <PUBCHEM_OPENEYE_CAN_SMILES>
CC(C)C(C1=CC=C(C=C1)Cl)NC(=O)CC2=CNC3=CC=CC=C32

> <PUBCHEM_OPENEYE_ISO_SMILES>
CC(C)C(C1=CC=C(C=C1)Cl)NC(=O)CC2=CNC3=CC=CC=C32

> <PUBCHEM_CACTVS_TPSA>
44.9

> <PUBCHEM_MONOISOTOPIC_WEIGHT>
340.134241

> <PUBCHEM_TOTAL_CHARGE>
0

> <PUBCHEM_HEAVY_ATOM_COUNT>
24

> <PUBCHEM_ATOM_DEF_STEREO_COUNT>
0

> <PUBCHEM_ATOM_UDEF_STEREO_COUNT>
1

> <PUBCHEM_BOND_DEF_STEREO_COUNT>
0

> <PUBCHEM_BOND_UDEF_STEREO_COUNT>
0

> <PUBCHEM_ISOTOPIC_ATOM_COUNT>
0

> <PUBCHEM_COMPONENT_COUNT>
1

> <PUBCHEM_CACTVS_TAUTO_COUNT>
2

> <PUBCHEM_COORDINATE_TYPE>
1
5
255

> <PUBCHEM_BONDANNOTATIONS>
12  13  8
12  17  8
13  16  8
13  18  8
14  19  8
15  20  8
16  21  8
18  23  8
19  22  8
20  22  8
21  24  8
23  24  8
4  16  8
4  17  8
5  6  3
7  14  8
7  15  8

$$$$
