46762463
  -OEChem-05231305262D

 31 31  0     0  0  0  0  0  0999 V2000
    2.0000   -0.4330    0.0000 Cl  0  0  0  0  0  0  0  0  0  0  0  0
    3.7320   -3.4330    0.0000 Cl  0  0  0  0  0  0  0  0  0  0  0  0
    3.7320    2.5670    0.0000 O   0  0  0  0  0  0  0  0  0  0  0  0
    4.5981    1.0670    0.0000 N   0  0  0  0  0  0  0  0  0  0  0  0
    5.4641    2.5670    0.0000 C   0  0  0  0  0  0  0  0  0  0  0  0
    4.5981    2.0670    0.0000 C   0  0  0  0  0  0  0  0  0  0  0  0
    6.3301    3.0670    0.0000 C   0  0  0  0  0  0  0  0  0  0  0  0
    4.9641    3.4330    0.0000 C   0  0  0  0  0  0  0  0  0  0  0  0
    5.9641    1.7010    0.0000 C   0  0  0  0  0  0  0  0  0  0  0  0
    3.7320    0.5670    0.0000 C   0  0  0  0  0  0  0  0  0  0  0  0
    3.7320   -0.4330    0.0000 C   0  0  0  0  0  0  0  0  0  0  0  0
    2.8660   -0.9330    0.0000 C   0  0  0  0  0  0  0  0  0  0  0  0
    4.5981   -0.9330    0.0000 C   0  0  0  0  0  0  0  0  0  0  0  0
    2.8660   -1.9330    0.0000 C   0  0  0  0  0  0  0  0  0  0  0  0
    4.5981   -1.9330    0.0000 C   0  0  0  0  0  0  0  0  0  0  0  0
    3.7320   -2.4330    0.0000 C   0  0  0  0  0  0  0  0  0  0  0  0
    5.4272    1.3910    0.0000 H   0  0  0  0  0  0  0  0  0  0  0  0
    6.2741    1.1640    0.0000 H   0  0  0  0  0  0  0  0  0  0  0  0
    5.5010    3.7430    0.0000 H   0  0  0  0  0  0  0  0  0  0  0  0
    4.6541    3.9700    0.0000 H   0  0  0  0  0  0  0  0  0  0  0  0
    4.4272    3.1230    0.0000 H   0  0  0  0  0  0  0  0  0  0  0  0
    6.6401    2.5300    0.0000 H   0  0  0  0  0  0  0  0  0  0  0  0
    6.8671    3.3770    0.0000 H   0  0  0  0  0  0  0  0  0  0  0  0
    6.0201    3.6039    0.0000 H   0  0  0  0  0  0  0  0  0  0  0  0
    6.5010    2.0110    0.0000 H   0  0  0  0  0  0  0  0  0  0  0  0
    5.1350    0.7570    0.0000 H   0  0  0  0  0  0  0  0  0  0  0  0
    3.5200    1.1496    0.0000 H   0  0  0  0  0  0  0  0  0  0  0  0
    3.1215    0.4593    0.0000 H   0  0  0  0  0  0  0  0  0  0  0  0
    5.1350   -0.6230    0.0000 H   0  0  0  0  0  0  0  0  0  0  0  0
    2.3291   -2.2430    0.0000 H   0  0  0  0  0  0  0  0  0  0  0  0
    5.1350   -2.2430    0.0000 H   0  0  0  0  0  0  0  0  0  0  0  0
  1 12  1  0  0  0  0
  2 16  1  0  0  0  0
  3  6  2  0  0  0  0
  4  6  1  0  0  0  0
  4 10  1  0  0  0  0
  4 26  1  0  0  0  0
  5  6  1  0  0  0  0
  5  7  1  0  0  0  0
  5  8  1  0  0  0  0
  5  9  1  0  0  0  0
  7 22  1  0  0  0  0
  7 23  1  0  0  0  0
  7 24  1  0  0  0  0
  8 19  1  0  0  0  0
  8 20  1  0  0  0  0
  8 21  1  0  0  0  0
  9 17  1  0  0  0  0
  9 18  1  0  0  0  0
  9 25  1  0  0  0  0
 10 11  1  0  0  0  0
 10 27  1  0  0  0  0
 10 28  1  0  0  0  0
 11 12  2  0  0  0  0
 11 13  1  0  0  0  0
 12 14  1  0  0  0  0
 13 15  2  0  0  0  0
 13 29  1  0  0  0  0
 14 16  2  0  0  0  0
 14 30  1  0  0  0  0
 15 16  1  0  0  0  0
 15 31  1  0  0  0  0
M  END
> <PUBCHEM_COMPOUND_CID>
46762463

> <PUBCHEM_COMPOUND_CANONICALIZED>
1

> <PUBCHEM_CACTVS_COMPLEXITY>
250

> <PUBCHEM_CACTVS_HBOND_ACCEPTOR>
1

> <PUBCHEM_CACTVS_HBOND_DONOR>
1

> <PUBCHEM_CACTVS_ROTATABLE_BOND>
3

> <PUBCHEM_CACTVS_SUBSKEYS>
AAADccByIAAGAAAAAAAAAAAAAAAAAAAAAAAwAAAAAAAAAAABAAAAHgIQAAAADgLBmCQyAILAAACIAiFSEACCAAAgBQAIiIEIBogIICKBkxGEIAhghgCIiAcQgAAOBAAAAACBAAAIAAAAAQIAAAAAAAAAAA==

> <PUBCHEM_IUPAC_OPENEYE_NAME>
N-[(2,4-dichlorophenyl)methyl]-2,2-dimethyl-propanamide

> <PUBCHEM_IUPAC_CAS_NAME>
N-[(2,4-dichlorophenyl)methyl]-2,2-dimethylpropanamide

> <PUBCHEM_IUPAC_NAME>
N-[(2,4-dichlorophenyl)methyl]-2,2-dimethylpropanamide

> <PUBCHEM_IUPAC_SYSTEMATIC_NAME>
N-[(2,4-dichlorophenyl)methyl]-2,2-dimethyl-propanamide

> <PUBCHEM_IUPAC_TRADITIONAL_NAME>
N-(2,4-dichlorobenzyl)-2,2-dimethyl-propionamide

> <PUBCHEM_IUPAC_INCHI>
InChI=1S/C12H15Cl2NO/c1-12(2,3)11(16)15-7-8-4-5-9(13)6-10(8)14/h4-6H,7H2,1-3H3,(H,15,16)

> <PUBCHEM_IUPAC_INCHIKEY>
VJUCAFCOBZZJFQ-UHFFFAOYSA-N

> <PUBCHEM_XLOGP3>
3.9

> <PUBCHEM_EXACT_MASS>
259.053069

> <PUBCHEM_MOLECULAR_FORMULA>
C12H15Cl2NO

> <PUBCHEM_MOLECULAR_WEIGHT>
260.1596

> <PUBCHEM_OPENEYE_CAN_SMILES>
CC(C)(C)C(=O)NCC1=C(C=C(C=C1)Cl)Cl

> <PUBCHEM_OPENEYE_ISO_SMILES>
CC(C)(C)C(=O)NCC1=C(C=C(C=C1)Cl)Cl

> <PUBCHEM_CACTVS_TPSA>
29.1

> <PUBCHEM_MONOISOTOPIC_WEIGHT>
259.053069

> <PUBCHEM_TOTAL_CHARGE>
0

> <PUBCHEM_HEAVY_ATOM_COUNT>
16

> <PUBCHEM_ATOM_DEF_STEREO_COUNT>
0

> <PUBCHEM_ATOM_UDEF_STEREO_COUNT>
0

> <PUBCHEM_BOND_DEF_STEREO_COUNT>
0

> <PUBCHEM_BOND_UDEF_STEREO_COUNT>
0

> <PUBCHEM_ISOTOPIC_ATOM_COUNT>
0

> <PUBCHEM_COMPONENT_COUNT>
1

> <PUBCHEM_CACTVS_TAUTO_COUNT>
2

> <PUBCHEM_COORDINATE_TYPE>
1
5
255

> <PUBCHEM_BONDANNOTATIONS>
11  12  8
11  13  8
12  14  8
13  15  8
14  16  8
15  16  8

$$$$
