36573774
  -OEChem-12041211502D

 43 46  0     0  0  0  0  0  0999 V2000
    5.6103    1.4575    0.0000 O   0  0  0  0  0  0  0  0  0  0  0  0
    7.2566    0.9195    0.0000 N   0  0  0  0  0  0  0  0  0  0  0  0
    4.6783   -3.0035    0.0000 N   0  0  0  0  0  0  0  0  0  0  0  0
    8.5458    2.0762    0.0000 C   0  0  0  0  0  0  0  0  0  0  0  0
    6.8994    2.6143    0.0000 C   0  0  0  0  0  0  0  0  0  0  0  0
    7.5673    1.8700    0.0000 C   0  0  0  0  0  0  0  0  0  0  0  0
    9.4963    1.7656    0.0000 C   0  0  0  0  0  0  0  0  0  0  0  0
    9.2901    2.7441    0.0000 C   0  0  0  0  0  0  0  0  0  0  0  0
    6.6932    3.5928    0.0000 C   0  0  0  0  0  0  0  0  0  0  0  0
    5.9489    2.9250    0.0000 C   0  0  0  0  0  0  0  0  0  0  0  0
    6.2781    0.7133    0.0000 C   0  0  0  0  0  0  0  0  0  0  0  0
    5.9674   -0.2373    0.0000 C   0  0  0  0  0  0  0  0  0  0  0  0
    4.9889   -0.4435    0.0000 C   0  0  0  0  0  0  0  0  0  0  0  0
    4.6783   -1.3940    0.0000 C   0  0  0  0  0  0  0  0  0  0  0  0
    3.7321   -1.6987    0.0000 C   0  0  0  0  0  0  0  0  0  0  0  0
    5.2619   -2.1987    0.0000 C   0  0  0  0  0  0  0  0  0  0  0  0
    3.7321   -2.6987    0.0000 C   0  0  0  0  0  0  0  0  0  0  0  0
    2.8660   -1.1987    0.0000 C   0  0  0  0  0  0  0  0  0  0  0  0
    2.8660   -3.1987    0.0000 C   0  0  0  0  0  0  0  0  0  0  0  0
    2.0000   -1.6987    0.0000 C   0  0  0  0  0  0  0  0  0  0  0  0
    2.0000   -2.6987    0.0000 C   0  0  0  0  0  0  0  0  0  0  0  0
    8.2653    2.6291    0.0000 H   0  0  0  0  0  0  0  0  0  0  0  0
    7.4523    2.8948    0.0000 H   0  0  0  0  0  0  0  0  0  0  0  0
    6.9606    1.7421    0.0000 H   0  0  0  0  0  0  0  0  0  0  0  0
    9.4090    1.1517    0.0000 H   0  0  0  0  0  0  0  0  0  0  0  0
   10.1160    1.7861    0.0000 H   0  0  0  0  0  0  0  0  0  0  0  0
    9.8653    2.9753    0.0000 H   0  0  0  0  0  0  0  0  0  0  0  0
    8.9624    3.2704    0.0000 H   0  0  0  0  0  0  0  0  0  0  0  0
    7.2685    3.8241    0.0000 H   0  0  0  0  0  0  0  0  0  0  0  0
    6.3656    4.1192    0.0000 H   0  0  0  0  0  0  0  0  0  0  0  0
    5.4610    3.3075    0.0000 H   0  0  0  0  0  0  0  0  0  0  0  0
    5.6569    2.3780    0.0000 H   0  0  0  0  0  0  0  0  0  0  0  0
    7.6707    0.4580    0.0000 H   0  0  0  0  0  0  0  0  0  0  0  0
    5.9880   -0.8569    0.0000 H   0  0  0  0  0  0  0  0  0  0  0  0
    6.5813   -0.3246    0.0000 H   0  0  0  0  0  0  0  0  0  0  0  0
    4.9684    0.1762    0.0000 H   0  0  0  0  0  0  0  0  0  0  0  0
    4.3751   -0.3561    0.0000 H   0  0  0  0  0  0  0  0  0  0  0  0
    5.8819   -2.1987    0.0000 H   0  0  0  0  0  0  0  0  0  0  0  0
    4.8709   -3.5928    0.0000 H   0  0  0  0  0  0  0  0  0  0  0  0
    2.8660   -0.5787    0.0000 H   0  0  0  0  0  0  0  0  0  0  0  0
    2.8660   -3.8187    0.0000 H   0  0  0  0  0  0  0  0  0  0  0  0
    1.4631   -1.3887    0.0000 H   0  0  0  0  0  0  0  0  0  0  0  0
    1.4631   -3.0087    0.0000 H   0  0  0  0  0  0  0  0  0  0  0  0
  1 11  2  0  0  0  0
  2  6  1  0  0  0  0
  2 11  1  0  0  0  0
  2 33  1  0  0  0  0
  3 16  1  0  0  0  0
  3 17  1  0  0  0  0
  3 39  1  0  0  0  0
  4  6  1  0  0  0  0
  4  7  1  0  0  0  0
  4  8  1  0  0  0  0
  4 22  1  0  0  0  0
  5  6  1  0  0  0  0
  5  9  1  0  0  0  0
  5 10  1  0  0  0  0
  5 23  1  0  0  0  0
  6 24  1  0  0  0  0
  7  8  1  0  0  0  0
  7 25  1  0  0  0  0
  7 26  1  0  0  0  0
  8 27  1  0  0  0  0
  8 28  1  0  0  0  0
  9 10  1  0  0  0  0
  9 29  1  0  0  0  0
  9 30  1  0  0  0  0
 10 31  1  0  0  0  0
 10 32  1  0  0  0  0
 11 12  1  0  0  0  0
 12 13  1  0  0  0  0
 12 34  1  0  0  0  0
 12 35  1  0  0  0  0
 13 14  1  0  0  0  0
 13 36  1  0  0  0  0
 13 37  1  0  0  0  0
 14 15  1  0  0  0  0
 14 16  2  0  0  0  0
 15 17  1  0  0  0  0
 15 18  2  0  0  0  0
 16 38  1  0  0  0  0
 17 19  2  0  0  0  0
 18 20  1  0  0  0  0
 18 40  1  0  0  0  0
 19 21  1  0  0  0  0
 19 41  1  0  0  0  0
 20 21  2  0  0  0  0
 20 42  1  0  0  0  0
 21 43  1  0  0  0  0
M  END
> <PUBCHEM_COMPOUND_CID>
36573774

> <PUBCHEM_COMPOUND_CANONICALIZED>
1

> <PUBCHEM_CACTVS_COMPLEXITY>
377

> <PUBCHEM_CACTVS_HBOND_ACCEPTOR>
1

> <PUBCHEM_CACTVS_HBOND_DONOR>
2

> <PUBCHEM_CACTVS_ROTATABLE_BOND>
6

> <PUBCHEM_CACTVS_SUBSKEYS>
AAADceB7IAAAAAAAAAAAAAAAGDAAAWAAAAAwAAAAAAAAAFgB8AAAHgAQAAAADSjBngQ8wPLJkACoAzV3VACCgCAxAiAI2aE4ZJgIIPLAkZGEIAhglgDIyAcYicCOgAAAAAACAAAAAAAAAAQAAAAAAAAAAA==

> <PUBCHEM_IUPAC_OPENEYE_NAME>
N-(dicyclopropylmethyl)-3-(1H-indol-3-yl)propanamide

> <PUBCHEM_IUPAC_CAS_NAME>
N-(dicyclopropylmethyl)-3-(1H-indol-3-yl)propanamide

> <PUBCHEM_IUPAC_NAME>
N-(dicyclopropylmethyl)-3-(1H-indol-3-yl)propanamide

> <PUBCHEM_IUPAC_SYSTEMATIC_NAME>
N-(dicyclopropylmethyl)-3-(1H-indol-3-yl)propanamide

> <PUBCHEM_IUPAC_TRADITIONAL_NAME>
N-(dicyclopropylmethyl)-3-(1H-indol-3-yl)propionamide

> <PUBCHEM_IUPAC_INCHI>
InChI=1S/C18H22N2O/c21-17(20-18(12-5-6-12)13-7-8-13)10-9-14-11-19-16-4-2-1-3-15(14)16/h1-4,11-13,18-19H,5-10H2,(H,20,21)

> <PUBCHEM_IUPAC_INCHIKEY>
NRLQKBSRNGJKEU-UHFFFAOYSA-N

> <PUBCHEM_XLOGP3>
3.1

> <PUBCHEM_EXACT_MASS>
282.173213

> <PUBCHEM_MOLECULAR_FORMULA>
C18H22N2O

> <PUBCHEM_MOLECULAR_WEIGHT>
282.38008

> <PUBCHEM_OPENEYE_CAN_SMILES>
C1CC1C(C2CC2)NC(=O)CCC3=CNC4=CC=CC=C43

> <PUBCHEM_OPENEYE_ISO_SMILES>
C1CC1C(C2CC2)NC(=O)CCC3=CNC4=CC=CC=C43

> <PUBCHEM_CACTVS_TPSA>
44.9

> <PUBCHEM_MONOISOTOPIC_WEIGHT>
282.173213

> <PUBCHEM_TOTAL_CHARGE>
0

> <PUBCHEM_HEAVY_ATOM_COUNT>
21

> <PUBCHEM_ATOM_DEF_STEREO_COUNT>
0

> <PUBCHEM_ATOM_UDEF_STEREO_COUNT>
0

> <PUBCHEM_BOND_DEF_STEREO_COUNT>
0

> <PUBCHEM_BOND_UDEF_STEREO_COUNT>
0

> <PUBCHEM_ISOTOPIC_ATOM_COUNT>
0

> <PUBCHEM_COMPONENT_COUNT>
1

> <PUBCHEM_CACTVS_TAUTO_COUNT>
2

> <PUBCHEM_COORDINATE_TYPE>
1
5
255

> <PUBCHEM_BONDANNOTATIONS>
14  15  8
14  16  8
15  17  8
15  18  8
17  19  8
18  20  8
19  21  8
20  21  8
3  16  8
3  17  8

$$$$
36573854
  -OEChem-12041211502D

 40 43  0     0  0  0  0  0  0999 V2000
    6.6353   -0.6094    0.0000 O   0  0  0  0  0  0  0  0  0  0  0  0
    6.2781    1.0854    0.0000 N   0  0  0  0  0  0  0  0  0  0  0  0
    4.6783   -2.6313    0.0000 N   0  0  0  0  0  0  0  0  0  0  0  0
    7.5673    2.2421    0.0000 C   0  0  0  0  0  0  0  0  0  0  0  0
    7.9244    0.5473    0.0000 C   0  0  0  0  0  0  0  0  0  0  0  0
    7.2566    1.2916    0.0000 C   0  0  0  0  0  0  0  0  0  0  0  0
    8.3116    2.9100    0.0000 C   0  0  0  0  0  0  0  0  0  0  0  0
    7.3610    3.2206    0.0000 C   0  0  0  0  0  0  0  0  0  0  0  0
    8.1307   -0.4312    0.0000 C   0  0  0  0  0  0  0  0  0  0  0  0
    8.8750    0.2367    0.0000 C   0  0  0  0  0  0  0  0  0  0  0  0
    5.9674    0.1349    0.0000 C   0  0  0  0  0  0  0  0  0  0  0  0
    4.9889   -0.0713    0.0000 C   0  0  0  0  0  0  0  0  0  0  0  0
    4.6783   -1.0219    0.0000 C   0  0  0  0  0  0  0  0  0  0  0  0
    3.7320   -1.3266    0.0000 C   0  0  0  0  0  0  0  0  0  0  0  0
    5.2619   -1.8266    0.0000 C   0  0  0  0  0  0  0  0  0  0  0  0
    3.7320   -2.3266    0.0000 C   0  0  0  0  0  0  0  0  0  0  0  0
    2.8660   -0.8266    0.0000 C   0  0  0  0  0  0  0  0  0  0  0  0
    2.8660   -2.8266    0.0000 C   0  0  0  0  0  0  0  0  0  0  0  0
    2.0000   -1.3266    0.0000 C   0  0  0  0  0  0  0  0  0  0  0  0
    2.0000   -2.3266    0.0000 C   0  0  0  0  0  0  0  0  0  0  0  0
    6.9482    2.2757    0.0000 H   0  0  0  0  0  0  0  0  0  0  0  0
    8.2630    1.0667    0.0000 H   0  0  0  0  0  0  0  0  0  0  0  0
    7.0640    0.7023    0.0000 H   0  0  0  0  0  0  0  0  0  0  0  0
    8.7995    2.5274    0.0000 H   0  0  0  0  0  0  0  0  0  0  0  0
    8.6036    3.4569    0.0000 H   0  0  0  0  0  0  0  0  0  0  0  0
    7.4484    3.8345    0.0000 H   0  0  0  0  0  0  0  0  0  0  0  0
    6.7414    3.2001    0.0000 H   0  0  0  0  0  0  0  0  0  0  0  0
    7.5554   -0.6624    0.0000 H   0  0  0  0  0  0  0  0  0  0  0  0
    8.4583   -0.9575    0.0000 H   0  0  0  0  0  0  0  0  0  0  0  0
    9.3629   -0.1459    0.0000 H   0  0  0  0  0  0  0  0  0  0  0  0
    9.1670    0.7836    0.0000 H   0  0  0  0  0  0  0  0  0  0  0  0
    5.8640    1.5469    0.0000 H   0  0  0  0  0  0  0  0  0  0  0  0
    4.9684    0.5483    0.0000 H   0  0  0  0  0  0  0  0  0  0  0  0
    4.3751    0.0160    0.0000 H   0  0  0  0  0  0  0  0  0  0  0  0
    5.8819   -1.8266    0.0000 H   0  0  0  0  0  0  0  0  0  0  0  0
    4.8709   -3.2206    0.0000 H   0  0  0  0  0  0  0  0  0  0  0  0
    2.8660   -0.2066    0.0000 H   0  0  0  0  0  0  0  0  0  0  0  0
    2.8660   -3.4466    0.0000 H   0  0  0  0  0  0  0  0  0  0  0  0
    1.4631   -1.0166    0.0000 H   0  0  0  0  0  0  0  0  0  0  0  0
    1.4631   -2.6366    0.0000 H   0  0  0  0  0  0  0  0  0  0  0  0
  1 11  2  0  0  0  0
  2  6  1  0  0  0  0
  2 11  1  0  0  0  0
  2 32  1  0  0  0  0
  3 15  1  0  0  0  0
  3 16  1  0  0  0  0
  3 36  1  0  0  0  0
  4  6  1  0  0  0  0
  4  7  1  0  0  0  0
  4  8  1  0  0  0  0
  4 21  1  0  0  0  0
  5  6  1  0  0  0  0
  5  9  1  0  0  0  0
  5 10  1  0  0  0  0
  5 22  1  0  0  0  0
  6 23  1  0  0  0  0
  7  8  1  0  0  0  0
  7 24  1  0  0  0  0
  7 25  1  0  0  0  0
  8 26  1  0  0  0  0
  8 27  1  0  0  0  0
  9 10  1  0  0  0  0
  9 28  1  0  0  0  0
  9 29  1  0  0  0  0
 10 30  1  0  0  0  0
 10 31  1  0  0  0  0
 11 12  1  0  0  0  0
 12 13  1  0  0  0  0
 12 33  1  0  0  0  0
 12 34  1  0  0  0  0
 13 14  1  0  0  0  0
 13 15  2  0  0  0  0
 14 16  1  0  0  0  0
 14 17  2  0  0  0  0
 15 35  1  0  0  0  0
 16 18  2  0  0  0  0
 17 19  1  0  0  0  0
 17 37  1  0  0  0  0
 18 20  1  0  0  0  0
 18 38  1  0  0  0  0
 19 20  2  0  0  0  0
 19 39  1  0  0  0  0
 20 40  1  0  0  0  0
M  END
> <PUBCHEM_COMPOUND_CID>
36573854

> <PUBCHEM_COMPOUND_CANONICALIZED>
1

> <PUBCHEM_CACTVS_COMPLEXITY>
363

> <PUBCHEM_CACTVS_HBOND_ACCEPTOR>
1

> <PUBCHEM_CACTVS_HBOND_DONOR>
2

> <PUBCHEM_CACTVS_ROTATABLE_BOND>
5

> <PUBCHEM_CACTVS_SUBSKEYS>
AAADceB7IAAAAAAAAAAAAAAAGDAAAWAAAAAwAAAAAAAAAFgB8AAAHgAQAAAADSjBngQ8wPLJkACoAzV3VACCgCAxAiAI2aE4ZJgIIPLAlZGEIAhglgDIyAccicCegAAAAAACAAAAAAAAAAQAAAAAAAAAAA==

> <PUBCHEM_IUPAC_OPENEYE_NAME>
N-(dicyclopropylmethyl)-2-(1H-indol-3-yl)acetamide

> <PUBCHEM_IUPAC_CAS_NAME>
N-(dicyclopropylmethyl)-2-(1H-indol-3-yl)acetamide

> <PUBCHEM_IUPAC_NAME>
N-(dicyclopropylmethyl)-2-(1H-indol-3-yl)acetamide

> <PUBCHEM_IUPAC_SYSTEMATIC_NAME>
N-(dicyclopropylmethyl)-2-(1H-indol-3-yl)ethanamide

> <PUBCHEM_IUPAC_TRADITIONAL_NAME>
N-(dicyclopropylmethyl)-2-(1H-indol-3-yl)acetamide

> <PUBCHEM_IUPAC_INCHI>
InChI=1S/C17H20N2O/c20-16(19-17(11-5-6-11)12-7-8-12)9-13-10-18-15-4-2-1-3-14(13)15/h1-4,10-12,17-18H,5-9H2,(H,19,20)

> <PUBCHEM_IUPAC_INCHIKEY>
RPOOAFVSRRAJMX-UHFFFAOYSA-N

> <PUBCHEM_XLOGP3>
2.7

> <PUBCHEM_EXACT_MASS>
268.157563

> <PUBCHEM_MOLECULAR_FORMULA>
C17H20N2O

> <PUBCHEM_MOLECULAR_WEIGHT>
268.3535

> <PUBCHEM_OPENEYE_CAN_SMILES>
C1CC1C(C2CC2)NC(=O)CC3=CNC4=CC=CC=C43

> <PUBCHEM_OPENEYE_ISO_SMILES>
C1CC1C(C2CC2)NC(=O)CC3=CNC4=CC=CC=C43

> <PUBCHEM_CACTVS_TPSA>
44.9

> <PUBCHEM_MONOISOTOPIC_WEIGHT>
268.157563

> <PUBCHEM_TOTAL_CHARGE>
0

> <PUBCHEM_HEAVY_ATOM_COUNT>
20

> <PUBCHEM_ATOM_DEF_STEREO_COUNT>
0

> <PUBCHEM_ATOM_UDEF_STEREO_COUNT>
0

> <PUBCHEM_BOND_DEF_STEREO_COUNT>
0

> <PUBCHEM_BOND_UDEF_STEREO_COUNT>
0

> <PUBCHEM_ISOTOPIC_ATOM_COUNT>
0

> <PUBCHEM_COMPONENT_COUNT>
1

> <PUBCHEM_CACTVS_TAUTO_COUNT>
2

> <PUBCHEM_COORDINATE_TYPE>
1
5
255

> <PUBCHEM_BONDANNOTATIONS>
13  14  8
13  15  8
14  16  8
14  17  8
16  18  8
17  19  8
18  20  8
19  20  8
3  15  8
3  16  8

$$$$
