37858992
  -OEChem-11301217462D

 32 33  0     0  0  0  0  0  0999 V2000
    2.0000   -0.7438    0.0000 Cl  0  0  0  0  0  0  0  0  0  0  0  0
    8.7905    0.6301    0.0000 O   0  0  0  0  0  0  0  0  0  0  0  0
    5.5443   -2.5485    0.0000 N   0  0  0  0  0  0  0  0  0  0  0  0
    7.1441    1.1682    0.0000 N   0  0  0  0  0  0  0  0  0  0  0  0
    9.4118    2.5312    0.0000 N   0  3  0  0  0  0  0  0  0  0  0  0
    5.5443   -0.9391    0.0000 C   0  0  0  0  0  0  0  0  0  0  0  0
    5.8550    0.0115    0.0000 C   0  0  0  0  0  0  0  0  0  0  0  0
    4.5981   -1.2438    0.0000 C   0  0  0  0  0  0  0  0  0  0  0  0
    4.5981   -2.2438    0.0000 C   0  0  0  0  0  0  0  0  0  0  0  0
    6.8335    0.2177    0.0000 C   0  0  0  0  0  0  0  0  0  0  0  0
    6.1279   -1.7438    0.0000 C   0  0  0  0  0  0  0  0  0  0  0  0
    3.7321   -0.7438    0.0000 C   0  0  0  0  0  0  0  0  0  0  0  0
    3.7321   -2.7438    0.0000 C   0  0  0  0  0  0  0  0  0  0  0  0
    2.8660   -1.2438    0.0000 C   0  0  0  0  0  0  0  0  0  0  0  0
    2.8660   -2.2438    0.0000 C   0  0  0  0  0  0  0  0  0  0  0  0
    8.1226    1.3744    0.0000 C   0  0  0  0  0  0  0  0  0  0  0  0
    8.4333    2.3250    0.0000 C   0  0  0  0  0  0  0  0  0  0  0  0
    5.8344    0.6311    0.0000 H   0  0  0  0  0  0  0  0  0  0  0  0
    5.2411    0.0988    0.0000 H   0  0  0  0  0  0  0  0  0  0  0  0
    6.8540   -0.4020    0.0000 H   0  0  0  0  0  0  0  0  0  0  0  0
    7.4473    0.1303    0.0000 H   0  0  0  0  0  0  0  0  0  0  0  0
    6.7479   -1.7438    0.0000 H   0  0  0  0  0  0  0  0  0  0  0  0
    5.7369   -3.1378    0.0000 H   0  0  0  0  0  0  0  0  0  0  0  0
    3.7321   -0.1238    0.0000 H   0  0  0  0  0  0  0  0  0  0  0  0
    3.7321   -3.3638    0.0000 H   0  0  0  0  0  0  0  0  0  0  0  0
    6.7301    1.6297    0.0000 H   0  0  0  0  0  0  0  0  0  0  0  0
    2.3291   -2.5538    0.0000 H   0  0  0  0  0  0  0  0  0  0  0  0
    8.4127    2.9446    0.0000 H   0  0  0  0  0  0  0  0  0  0  0  0
    7.8195    2.4123    0.0000 H   0  0  0  0  0  0  0  0  0  0  0  0
   10.0185    2.6590    0.0000 H   0  0  0  0  0  0  0  0  0  0  0  0
    9.2840    3.1378    0.0000 H   0  0  0  0  0  0  0  0  0  0  0  0
    9.5397    1.9245    0.0000 H   0  0  0  0  0  0  0  0  0  0  0  0
  1 14  1  0  0  0  0
  2 16  2  0  0  0  0
  3  9  1  0  0  0  0
  3 11  1  0  0  0  0
  3 23  1  0  0  0  0
  4 10  1  0  0  0  0
  4 16  1  0  0  0  0
  4 26  1  0  0  0  0
  5 17  1  0  0  0  0
  5 30  1  0  0  0  0
  5 31  1  0  0  0  0
  5 32  1  0  0  0  0
  6  7  1  0  0  0  0
  6  8  1  0  0  0  0
  6 11  2  0  0  0  0
  7 10  1  0  0  0  0
  7 18  1  0  0  0  0
  7 19  1  0  0  0  0
  8  9  2  0  0  0  0
  8 12  1  0  0  0  0
  9 13  1  0  0  0  0
 10 20  1  0  0  0  0
 10 21  1  0  0  0  0
 11 22  1  0  0  0  0
 12 14  2  0  0  0  0
 12 24  1  0  0  0  0
 13 15  2  0  0  0  0
 13 25  1  0  0  0  0
 14 15  1  0  0  0  0
 15 27  1  0  0  0  0
 16 17  1  0  0  0  0
 17 28  1  0  0  0  0
 17 29  1  0  0  0  0
M  CHG  1   5   1
M  END
> <PUBCHEM_COMPOUND_CID>
37858992

> <PUBCHEM_COMPOUND_CANONICALIZED>
1

> <PUBCHEM_CACTVS_COMPLEXITY>
275

> <PUBCHEM_CACTVS_HBOND_ACCEPTOR>
1

> <PUBCHEM_CACTVS_HBOND_DONOR>
3

> <PUBCHEM_CACTVS_ROTATABLE_BOND>
4

> <PUBCHEM_CACTVS_SUBSKEYS>
AAADccBzIAAEAAAAAAAAAAAAAAAAAWAAAAAwAAAAAAAAAFgB8AAAHgIQAAAADArBniQ8wPLJkACoAzV3VACCgCAxByAI2aC4ZpgIYOLBk5GUIAhglgDIyAcQgMAOgABAIAACAAAAAIBAAAQAAAAAAAAAAA==

> <PUBCHEM_IUPAC_OPENEYE_NAME>
[2-[2-(5-chloro-1H-indol-3-yl)ethylamino]-2-oxo-ethyl]ammonium

> <PUBCHEM_IUPAC_CAS_NAME>
[2-[2-(5-chloro-1H-indol-3-yl)ethylamino]-2-oxoethyl]ammonium

> <PUBCHEM_IUPAC_NAME>
[2-[2-(5-chloro-1H-indol-3-yl)ethylamino]-2-oxoethyl]azanium

> <PUBCHEM_IUPAC_SYSTEMATIC_NAME>
[2-[2-(5-chloranyl-1H-indol-3-yl)ethylamino]-2-oxidanylidene-ethyl]azanium

> <PUBCHEM_IUPAC_TRADITIONAL_NAME>
[2-[2-(5-chloro-1H-indol-3-yl)ethylamino]-2-keto-ethyl]ammonium

> <PUBCHEM_IUPAC_INCHI>
InChI=1S/C12H14ClN3O/c13-9-1-2-11-10(5-9)8(7-16-11)3-4-15-12(17)6-14/h1-2,5,7,16H,3-4,6,14H2,(H,15,17)/p+1

> <PUBCHEM_IUPAC_INCHIKEY>
HDQPZMPHTRRNKZ-UHFFFAOYSA-O

> <PUBCHEM_XLOGP3>
0.5

> <PUBCHEM_EXACT_MASS>
252.090365

> <PUBCHEM_MOLECULAR_FORMULA>
C12H15ClN3O+

> <PUBCHEM_MOLECULAR_WEIGHT>
252.72

> <PUBCHEM_OPENEYE_CAN_SMILES>
C1=CC2=C(C=C1Cl)C(=CN2)CCNC(=O)C[NH3+]

> <PUBCHEM_OPENEYE_ISO_SMILES>
C1=CC2=C(C=C1Cl)C(=CN2)CCNC(=O)C[NH3+]

> <PUBCHEM_CACTVS_TPSA>
72.5

> <PUBCHEM_MONOISOTOPIC_WEIGHT>
252.090365

> <PUBCHEM_TOTAL_CHARGE>
1

> <PUBCHEM_HEAVY_ATOM_COUNT>
17

> <PUBCHEM_ATOM_DEF_STEREO_COUNT>
0

> <PUBCHEM_ATOM_UDEF_STEREO_COUNT>
0

> <PUBCHEM_BOND_DEF_STEREO_COUNT>
0

> <PUBCHEM_BOND_UDEF_STEREO_COUNT>
0

> <PUBCHEM_ISOTOPIC_ATOM_COUNT>
0

> <PUBCHEM_COMPONENT_COUNT>
1

> <PUBCHEM_CACTVS_TAUTO_COUNT>
2

> <PUBCHEM_COORDINATE_TYPE>
1
5
255

> <PUBCHEM_BONDANNOTATIONS>
12  14  8
13  15  8
14  15  8
3  11  8
3  9  8
6  11  8
6  8  8
8  12  8
8  9  8
9  13  8

$$$$
