6803597
  -OEChem-11301217012D

 39 41  0     1  0  0  0  0  0999 V2000
    4.5981   -0.5915    0.0000 S   0  0  0  0  0  0  0  0  0  0  0  0
   11.4322   -1.0871    0.0000 S   0  0  0  0  0  0  0  0  0  0  0  0
    7.1780    1.6212    0.0000 O   0  0  0  0  0  0  0  0  0  0  0  0
    3.7320    2.9085    0.0000 O   0  0  0  0  0  0  0  0  0  0  0  0
    5.4641    2.9085    0.0000 O   0  0  0  0  0  0  0  0  0  0  0  0
    8.4053    0.4180    0.0000 O   0  0  0  0  0  0  0  0  0  0  0  0
    9.2950   -2.9299    0.0000 O   0  0  0  0  0  0  0  0  0  0  0  0
    5.4641    0.9085    0.0000 N   0  0  0  0  0  0  0  0  0  0  0  0
    7.1780   -0.8042    0.0000 N   0  0  0  0  0  0  0  0  0  0  0  0
    8.5893   -2.2214    0.0000 N   0  0  0  0  0  0  0  0  0  0  0  0
   10.1769   -0.0663    0.0000 N   0  0  0  0  0  0  0  0  0  0  0  0
   11.8063    0.6552    0.0000 N   0  0  0  0  0  0  0  0  0  0  0  0
    5.4641   -0.0915    0.0000 C   0  0  3  0  0  0  0  0  0  0  0  0
    6.4724   -0.0957    0.0000 C   0  0  3  0  0  0  0  0  0  0  0  0
    6.4724    0.9126    0.0000 C   0  0  0  0  0  0  0  0  0  0  0  0
    4.5981    1.4085    0.0000 C   0  0  0  0  0  0  0  0  0  0  0  0
    3.7320   -0.0915    0.0000 C   0  0  0  0  0  0  0  0  0  0  0  0
    3.7320    0.9085    0.0000 C   0  0  0  0  0  0  0  0  0  0  0  0
    4.5981    2.4085    0.0000 C   0  0  0  0  0  0  0  0  0  0  0  0
    8.1445   -0.5474    0.0000 C   0  0  0  0  0  0  0  0  0  0  0  0
    2.8660    1.4085    0.0000 C   0  0  0  0  0  0  0  0  0  0  0  0
    8.8501   -1.2560    0.0000 C   0  0  0  0  0  0  0  0  0  0  0  0
    2.0000    0.9085    0.0000 C   0  0  0  0  0  0  0  0  0  0  0  0
    9.8166   -0.9991    0.0000 C   0  0  0  0  0  0  0  0  0  0  0  0
   10.5924   -1.6300    0.0000 C   0  0  0  0  0  0  0  0  0  0  0  0
   11.1754   -0.1207    0.0000 C   0  0  0  0  0  0  0  0  0  0  0  0
    5.6824   -0.9130    0.0000 H   0  0  0  0  0  0  0  0  0  0  0  0
    6.1447   -0.8800    0.0000 H   0  0  0  0  0  0  0  0  0  0  0  0
    7.0163   -1.4028    0.0000 H   0  0  0  0  0  0  0  0  0  0  0  0
    3.1215    0.0161    0.0000 H   0  0  0  0  0  0  0  0  0  0  0  0
    3.5200   -0.6741    0.0000 H   0  0  0  0  0  0  0  0  0  0  0  0
    2.8660    2.0285    0.0000 H   0  0  0  0  0  0  0  0  0  0  0  0
    1.4631    1.2185    0.0000 H   0  0  0  0  0  0  0  0  0  0  0  0
    2.0000    0.2885    0.0000 H   0  0  0  0  0  0  0  0  0  0  0  0
    3.7320    3.5285    0.0000 H   0  0  0  0  0  0  0  0  0  0  0  0
   10.5587   -2.2491    0.0000 H   0  0  0  0  0  0  0  0  0  0  0  0
    9.1333   -3.5285    0.0000 H   0  0  0  0  0  0  0  0  0  0  0  0
   12.4185    0.5569    0.0000 H   0  0  0  0  0  0  0  0  0  0  0  0
   11.5853    1.2344    0.0000 H   0  0  0  0  0  0  0  0  0  0  0  0
  1 13  1  0  0  0  0
  1 17  1  0  0  0  0
  2 25  1  0  0  0  0
  2 26  1  0  0  0  0
  3 15  2  0  0  0  0
  4 19  1  0  0  0  0
  4 35  1  0  0  0  0
  5 19  2  0  0  0  0
  6 20  2  0  0  0  0
  7 10  1  0  0  0  0
  7 37  1  0  0  0  0
  8 13  1  0  0  0  0
  8 15  1  0  0  0  0
  8 16  1  0  0  0  0
  9 14  1  0  0  0  0
  9 20  1  0  0  0  0
  9 29  1  0  0  0  0
 10 22  2  3  0  0  0
 11 24  1  0  0  0  0
 11 26  2  0  0  0  0
 12 26  1  0  0  0  0
 12 38  1  0  0  0  0
 12 39  1  0  0  0  0
 13 14  1  0  0  0  0
 13 27  1  0  0  0  0
 14 15  1  0  0  0  0
 14 28  1  0  0  0  0
 16 18  2  0  0  0  0
 16 19  1  0  0  0  0
 17 18  1  0  0  0  0
 17 30  1  0  0  0  0
 17 31  1  0  0  0  0
 18 21  1  0  0  0  0
 20 22  1  0  0  0  0
 21 23  2  0  0  0  0
 21 32  1  0  0  0  0
 22 24  1  0  0  0  0
 23 33  1  0  0  0  0
 23 34  1  0  0  0  0
 24 25  2  0  0  0  0
 25 36  1  0  0  0  0
M  END
> <PUBCHEM_COMPOUND_CID>
6803597

> <PUBCHEM_COMPOUND_CANONICALIZED>
1

> <PUBCHEM_CACTVS_COMPLEXITY>
739

> <PUBCHEM_CACTVS_HBOND_ACCEPTOR>
10

> <PUBCHEM_CACTVS_HBOND_DONOR>
4

> <PUBCHEM_CACTVS_ROTATABLE_BOND>
5

> <PUBCHEM_CACTVS_SUBSKEYS>
AAADccBzuABgAAAAAAAAAAAAAABYAWAAAAAgAAAAAAAQAAABgAAAHgQUCAAADCjF1gShmRPYEgisAyXyfAAA8KlhCjkICJW4IFiKZJggxCEUEAAAFgKwkSAAAAAAAAAAAAAAAAAAAAAAAAAAAAAAAAAAAA==

> <PUBCHEM_IUPAC_OPENEYE_NAME>
7-[[2-(2-aminothiazol-4-yl)-2-hydroxyimino-acetyl]amino]-8-oxo-3-vinyl-5-thia-1-azabicyclo[4.2.0]oct-2-ene-2-carboxylic acid

> <PUBCHEM_IUPAC_CAS_NAME>
7-[[2-(2-amino-4-thiazolyl)-2-hydroxyimino-1-oxoethyl]amino]-3-ethenyl-8-oxo-5-thia-1-azabicyclo[4.2.0]oct-2-ene-2-carboxylic acid

> <PUBCHEM_IUPAC_NAME>
7-[[2-(2-amino-1,3-thiazol-4-yl)-2-hydroxyiminoacetyl]amino]-3-ethenyl-8-oxo-5-thia-1-azabicyclo[4.2.0]oct-2-ene-2-carboxylic acid

> <PUBCHEM_IUPAC_SYSTEMATIC_NAME>
7-[[2-(2-azanyl-1,3-thiazol-4-yl)-2-hydroxyimino-ethanoyl]amino]-3-ethenyl-8-oxidanylidene-5-thia-1-azabicyclo[4.2.0]oct-2-ene-2-carboxylic acid

> <PUBCHEM_IUPAC_TRADITIONAL_NAME>
7-[[2-(2-aminothiazol-4-yl)-2-hydroximino-acetyl]amino]-8-keto-3-vinyl-5-thia-1-azabicyclo[4.2.0]oct-2-ene-2-carboxylic acid

> <PUBCHEM_IUPAC_INCHI>
InChI=1S/C14H13N5O5S2/c1-2-5-3-25-12-8(11(21)19(12)9(5)13(22)23)17-10(20)7(18-24)6-4-26-14(15)16-6/h2,4,8,12,24H,1,3H2,(H2,15,16)(H,17,20)(H,22,23)

> <PUBCHEM_IUPAC_INCHIKEY>
RTXOFQZKPXMALH-UHFFFAOYSA-N

> <PUBCHEM_XLOGP3>
0

> <PUBCHEM_EXACT_MASS>
395.035811

> <PUBCHEM_MOLECULAR_FORMULA>
C14H13N5O5S2

> <PUBCHEM_MOLECULAR_WEIGHT>
395.41352

> <PUBCHEM_OPENEYE_CAN_SMILES>
C=CC1=C(N2C(C(C2=O)NC(=O)C(=NO)C3=CSC(=N3)N)SC1)C(=O)O

> <PUBCHEM_OPENEYE_ISO_SMILES>
C=CC1=C(N2C(C(C2=O)NC(=O)C(=NO)C3=CSC(=N3)N)SC1)C(=O)O

> <PUBCHEM_CACTVS_TPSA>
212

> <PUBCHEM_MONOISOTOPIC_WEIGHT>
395.035811

> <PUBCHEM_TOTAL_CHARGE>
0

> <PUBCHEM_HEAVY_ATOM_COUNT>
26

> <PUBCHEM_ATOM_DEF_STEREO_COUNT>
0

> <PUBCHEM_ATOM_UDEF_STEREO_COUNT>
2

> <PUBCHEM_BOND_DEF_STEREO_COUNT>
0

> <PUBCHEM_BOND_UDEF_STEREO_COUNT>
1

> <PUBCHEM_ISOTOPIC_ATOM_COUNT>
0

> <PUBCHEM_COMPONENT_COUNT>
1

> <PUBCHEM_CACTVS_TAUTO_COUNT>
28

> <PUBCHEM_COORDINATE_TYPE>
1
5
255

> <PUBCHEM_BONDANNOTATIONS>
10  22  1
11  24  8
11  26  8
13  27  3
14  28  3
2  25  8
2  26  8
24  25  8

$$$$
6810623
  -OEChem-11301217012D

 49 51  0     0  0  0  0  0  0999 V2000
    3.9538    0.6193    0.0000 S   0  0  0  0  0  0  0  0  0  0  0  0
    2.2788    2.7071    0.0000 S   0  0  0  0  0  0  0  0  0  0  0  0
    4.4538    1.4853    0.0000 O   0  0  0  0  0  0  0  0  0  0  0  0
    3.4538   -0.2467    0.0000 O   0  0  0  0  0  0  0  0  0  0  0  0
    7.4179   -4.3807    0.0000 O   0  0  0  0  0  0  0  0  0  0  0  0
   10.8820   -4.3807    0.0000 O   0  0  0  0  0  0  0  0  0  0  0  0
    9.1500   -4.3807    0.0000 N   0  0  0  0  0  0  0  0  0  0  0  0
    7.4179   -1.3807    0.0000 N   0  0  0  0  0  0  0  0  0  0  0  0
    3.0878    1.1193    0.0000 N   0  0  0  0  0  0  0  0  0  0  0  0
    3.8968    2.7071    0.0000 N   0  0  0  0  0  0  0  0  0  0  0  0
    3.5878    3.6581    0.0000 N   0  0  0  0  0  0  0  0  0  0  0  0
   11.7480   -1.8807    0.0000 N   0  0  0  0  0  0  0  0  0  0  0  0
    8.2839   -2.8807    0.0000 C   0  0  0  0  0  0  0  0  0  0  0  0
    9.1500   -2.3807    0.0000 C   0  0  0  0  0  0  0  0  0  0  0  0
    4.8198    0.1193    0.0000 C   0  0  0  0  0  0  0  0  0  0  0  0
    6.5519   -0.8807    0.0000 C   0  0  0  0  0  0  0  0  0  0  0  0
    8.2839   -3.8807    0.0000 C   0  0  0  0  0  0  0  0  0  0  0  0
    7.4179   -2.3807    0.0000 C   0  0  0  0  0  0  0  0  0  0  0  0
   10.0160   -2.8807    0.0000 C   0  0  0  0  0  0  0  0  0  0  0  0
    4.8198   -0.8807    0.0000 C   0  0  0  0  0  0  0  0  0  0  0  0
    5.6859    0.6193    0.0000 C   0  0  0  0  0  0  0  0  0  0  0  0
    5.6859   -1.3807    0.0000 C   0  0  0  0  0  0  0  0  0  0  0  0
    6.5519    0.1193    0.0000 C   0  0  0  0  0  0  0  0  0  0  0  0
   10.0160   -3.8807    0.0000 C   0  0  0  0  0  0  0  0  0  0  0  0
    9.1500   -1.3807    0.0000 C   0  0  0  0  0  0  0  0  0  0  0  0
    9.1500   -5.3807    0.0000 C   0  0  0  0  0  0  0  0  0  0  0  0
    3.0878    2.1193    0.0000 C   0  0  0  0  0  0  0  0  0  0  0  0
    2.5878    3.6581    0.0000 C   0  0  0  0  0  0  0  0  0  0  0  0
    2.0000    4.4672    0.0000 C   0  0  0  0  0  0  0  0  0  0  0  0
   10.8820   -2.3807    0.0000 C   0  0  0  0  0  0  0  0  0  0  0  0
    2.4067    5.3807    0.0000 C   0  0  0  0  0  0  0  0  0  0  0  0
    6.8810   -2.6907    0.0000 H   0  0  0  0  0  0  0  0  0  0  0  0
    4.2829   -1.1907    0.0000 H   0  0  0  0  0  0  0  0  0  0  0  0
    5.6859    1.2393    0.0000 H   0  0  0  0  0  0  0  0  0  0  0  0
    7.9548   -1.0707    0.0000 H   0  0  0  0  0  0  0  0  0  0  0  0
    5.6859   -2.0007    0.0000 H   0  0  0  0  0  0  0  0  0  0  0  0
    7.0888    0.4293    0.0000 H   0  0  0  0  0  0  0  0  0  0  0  0
    9.7700   -1.3807    0.0000 H   0  0  0  0  0  0  0  0  0  0  0  0
    9.1500   -0.7607    0.0000 H   0  0  0  0  0  0  0  0  0  0  0  0
    8.5300   -1.3807    0.0000 H   0  0  0  0  0  0  0  0  0  0  0  0
    2.5508    0.8093    0.0000 H   0  0  0  0  0  0  0  0  0  0  0  0
    8.5300   -5.3807    0.0000 H   0  0  0  0  0  0  0  0  0  0  0  0
    9.1500   -6.0007    0.0000 H   0  0  0  0  0  0  0  0  0  0  0  0
    9.7700   -5.3807    0.0000 H   0  0  0  0  0  0  0  0  0  0  0  0
    1.4860    4.8139    0.0000 H   0  0  0  0  0  0  0  0  0  0  0  0
    1.5693    4.0212    0.0000 H   0  0  0  0  0  0  0  0  0  0  0  0
    2.9731    5.1285    0.0000 H   0  0  0  0  0  0  0  0  0  0  0  0
    2.6589    5.9471    0.0000 H   0  0  0  0  0  0  0  0  0  0  0  0
    1.8403    5.6329    0.0000 H   0  0  0  0  0  0  0  0  0  0  0  0
  1  3  2  0  0  0  0
  1  4  2  0  0  0  0
  1  9  1  0  0  0  0
  1 15  1  0  0  0  0
  2 27  1  0  0  0  0
  2 28  1  0  0  0  0
  5 17  2  0  0  0  0
  6 24  2  0  0  0  0
  7 17  1  0  0  0  0
  7 24  1  0  0  0  0
  7 26  1  0  0  0  0
  8 16  1  0  0  0  0
  8 18  1  0  0  0  0
  8 35  1  0  0  0  0
  9 27  1  0  0  0  0
  9 41  1  0  0  0  0
 10 11  1  0  0  0  0
 10 27  2  0  0  0  0
 11 28  2  0  0  0  0
 12 30  3  0  0  0  0
 13 14  1  0  0  0  0
 13 17  1  0  0  0  0
 13 18  2  3  0  0  0
 14 19  2  0  0  0  0
 14 25  1  0  0  0  0
 15 20  2  0  0  0  0
 15 21  1  0  0  0  0
 16 22  2  0  0  0  0
 16 23  1  0  0  0  0
 18 32  1  0  0  0  0
 19 24  1  0  0  0  0
 19 30  1  0  0  0  0
 20 22  1  0  0  0  0
 20 33  1  0  0  0  0
 21 23  2  0  0  0  0
 21 34  1  0  0  0  0
 22 36  1  0  0  0  0
 23 37  1  0  0  0  0
 25 38  1  0  0  0  0
 25 39  1  0  0  0  0
 25 40  1  0  0  0  0
 26 42  1  0  0  0  0
 26 43  1  0  0  0  0
 26 44  1  0  0  0  0
 28 29  1  0  0  0  0
 29 31  1  0  0  0  0
 29 45  1  0  0  0  0
 29 46  1  0  0  0  0
 31 47  1  0  0  0  0
 31 48  1  0  0  0  0
 31 49  1  0  0  0  0
M  END
> <PUBCHEM_COMPOUND_CID>
6810623

> <PUBCHEM_COMPOUND_CANONICALIZED>
1

> <PUBCHEM_CACTVS_COMPLEXITY>
954

> <PUBCHEM_CACTVS_HBOND_ACCEPTOR>
10

> <PUBCHEM_CACTVS_HBOND_DONOR>
2

> <PUBCHEM_CACTVS_ROTATABLE_BOND>
6

> <PUBCHEM_CACTVS_SUBSKEYS>
AAADceB7uABgAAAAAAAAAAAAAAAAAWAAAAAwQAAAAAAAAAABwAAAHgQYQAAADAjB0gQz0YPAAAq+BiV2cHDyAJJhAhEciJk4ZMgIoDLgkZGEIAhwniDIyccQAAAAAAQAAAAAAAAACAAAAAAAAAAAAAAAAA==

> <PUBCHEM_IUPAC_OPENEYE_NAME>
4-[(5-cyano-1,4-dimethyl-2,6-dioxo-3-pyridylidene)methylamino]-N-(5-ethyl-1,3,4-thiadiazol-2-yl)benzenesulfonamide

> <PUBCHEM_IUPAC_CAS_NAME>
4-[(5-cyano-1,4-dimethyl-2,6-dioxo-3-pyridinylidene)methylamino]-N-(5-ethyl-1,3,4-thiadiazol-2-yl)benzenesulfonamide

> <PUBCHEM_IUPAC_NAME>
4-[(5-cyano-1,4-dimethyl-2,6-dioxopyridin-3-ylidene)methylamino]-N-(5-ethyl-1,3,4-thiadiazol-2-yl)benzenesulfonamide

> <PUBCHEM_IUPAC_SYSTEMATIC_NAME>
4-[[5-cyano-1,4-dimethyl-2,6-bis(oxidanylidene)pyridin-3-ylidene]methylamino]-N-(5-ethyl-1,3,4-thiadiazol-2-yl)benzenesulfonamide

> <PUBCHEM_IUPAC_TRADITIONAL_NAME>
4-[(5-cyano-2,6-diketo-1,4-dimethyl-3-pyridylidene)methylamino]-N-(5-ethyl-1,3,4-thiadiazol-2-yl)benzenesulfonamide

> <PUBCHEM_IUPAC_INCHI>
InChI=1S/C19H18N6O4S2/c1-4-16-22-23-19(30-16)24-31(28,29)13-7-5-12(6-8-13)21-10-15-11(2)14(9-20)17(26)25(3)18(15)27/h5-8,10,21H,4H2,1-3H3,(H,23,24)

> <PUBCHEM_IUPAC_INCHIKEY>
PLPNTXZTXAUNAV-UHFFFAOYSA-N

> <PUBCHEM_XLOGP3>
1.1

> <PUBCHEM_EXACT_MASS>
458.083095

> <PUBCHEM_MOLECULAR_FORMULA>
C19H18N6O4S2

> <PUBCHEM_MOLECULAR_WEIGHT>
458.51402

> <PUBCHEM_OPENEYE_CAN_SMILES>
CCC1=NN=C(S1)NS(=O)(=O)C2=CC=C(C=C2)NC=C3C(=C(C(=O)N(C3=O)C)C#N)C

> <PUBCHEM_OPENEYE_ISO_SMILES>
CCC1=NN=C(S1)NS(=O)(=O)C2=CC=C(C=C2)NC=C3C(=C(C(=O)N(C3=O)C)C#N)C

> <PUBCHEM_CACTVS_TPSA>
182

> <PUBCHEM_MONOISOTOPIC_WEIGHT>
458.083095

> <PUBCHEM_TOTAL_CHARGE>
0

> <PUBCHEM_HEAVY_ATOM_COUNT>
31

> <PUBCHEM_ATOM_DEF_STEREO_COUNT>
0

> <PUBCHEM_ATOM_UDEF_STEREO_COUNT>
0

> <PUBCHEM_BOND_DEF_STEREO_COUNT>
0

> <PUBCHEM_BOND_UDEF_STEREO_COUNT>
1

> <PUBCHEM_ISOTOPIC_ATOM_COUNT>
0

> <PUBCHEM_COMPONENT_COUNT>
1

> <PUBCHEM_CACTVS_TAUTO_COUNT>
10

> <PUBCHEM_COORDINATE_TYPE>
1
5
255

> <PUBCHEM_BONDANNOTATIONS>
10  11  8
10  27  8
11  28  8
13  18  1
15  20  8
15  21  8
16  22  8
16  23  8
2  27  8
2  28  8
20  22  8
21  23  8

$$$$
6814581
  -OEChem-11301217012D

 36 39  0     0  0  0  0  0  0999 V2000
    2.8660    0.7640    0.0000 S   0  0  0  0  0  0  0  0  0  0  0  0
   12.1218    0.7640    0.0000 S   0  0  0  0  0  0  0  0  0  0  0  0
    6.7210    1.5193    0.0000 O   0  0  0  0  0  0  0  0  0  0  0  0
    8.2669    1.5193    0.0000 O   0  0  0  0  0  0  0  0  0  0  0  0
    2.0000    1.2640    0.0000 O   0  5  0  0  0  0  0  0  0  0  0  0
   12.9879    1.2640    0.0000 O   0  5  0  0  0  0  0  0  0  0  0  0
   12.6218   -0.1020    0.0000 O   0  0  0  0  0  0  0  0  0  0  0  0
   11.6218    1.6300    0.0000 O   0  0  0  0  0  0  0  0  0  0  0  0
    2.3660   -0.1020    0.0000 O   0  0  0  0  0  0  0  0  0  0  0  0
    3.3660    1.6300    0.0000 O   0  0  0  0  0  0  0  0  0  0  0  0
    6.4103   -1.0407    0.0000 N   0  0  0  0  0  0  0  0  0  0  0  0
    8.5775   -1.0407    0.0000 N   0  0  0  0  0  0  0  0  0  0  0  0
    6.9939   -0.2360    0.0000 C   0  0  0  0  0  0  0  0  0  0  0  0
    7.9939   -0.2360    0.0000 C   0  0  0  0  0  0  0  0  0  0  0  0
    5.4641    0.2640    0.0000 C   0  0  0  0  0  0  0  0  0  0  0  0
    9.5238    0.2640    0.0000 C   0  0  0  0  0  0  0  0  0  0  0  0
    5.4641   -0.7360    0.0000 C   0  0  0  0  0  0  0  0  0  0  0  0
    9.5238   -0.7360    0.0000 C   0  0  0  0  0  0  0  0  0  0  0  0
    6.4103    0.5687    0.0000 C   0  0  0  0  0  0  0  0  0  0  0  0
    8.5775    0.5687    0.0000 C   0  0  0  0  0  0  0  0  0  0  0  0
    4.5981    0.7640    0.0000 C   0  0  0  0  0  0  0  0  0  0  0  0
   10.3898    0.7640    0.0000 C   0  0  0  0  0  0  0  0  0  0  0  0
    4.5981   -1.2360    0.0000 C   0  0  0  0  0  0  0  0  0  0  0  0
   10.3898   -1.2360    0.0000 C   0  0  0  0  0  0  0  0  0  0  0  0
    3.7320    0.2640    0.0000 C   0  0  0  0  0  0  0  0  0  0  0  0
   11.2558    0.2640    0.0000 C   0  0  0  0  0  0  0  0  0  0  0  0
    3.7320   -0.7360    0.0000 C   0  0  0  0  0  0  0  0  0  0  0  0
   11.2558   -0.7360    0.0000 C   0  0  0  0  0  0  0  0  0  0  0  0
    8.3849   -1.6300    0.0000 H   0  0  0  0  0  0  0  0  0  0  0  0
    6.6029   -1.6300    0.0000 H   0  0  0  0  0  0  0  0  0  0  0  0
   10.3898    1.3840    0.0000 H   0  0  0  0  0  0  0  0  0  0  0  0
    4.5981    1.3840    0.0000 H   0  0  0  0  0  0  0  0  0  0  0  0
   10.3898   -1.8560    0.0000 H   0  0  0  0  0  0  0  0  0  0  0  0
    4.5981   -1.8560    0.0000 H   0  0  0  0  0  0  0  0  0  0  0  0
   11.7927   -1.0460    0.0000 H   0  0  0  0  0  0  0  0  0  0  0  0
    3.1951   -1.0460    0.0000 H   0  0  0  0  0  0  0  0  0  0  0  0
  1  5  1  0  0  0  0
  1  9  2  0  0  0  0
  1 10  2  0  0  0  0
  1 25  1  0  0  0  0
  2  6  1  0  0  0  0
  2  7  2  0  0  0  0
  2  8  2  0  0  0  0
  2 26  1  0  0  0  0
  3 19  2  0  0  0  0
  4 20  2  0  0  0  0
 11 13  1  0  0  0  0
 11 17  1  0  0  0  0
 11 30  1  0  0  0  0
 12 14  1  0  0  0  0
 12 18  1  0  0  0  0
 12 29  1  0  0  0  0
 13 14  2  3  0  0  0
 13 19  1  0  0  0  0
 14 20  1  0  0  0  0
 15 17  2  0  0  0  0
 15 19  1  0  0  0  0
 15 21  1  0  0  0  0
 16 18  2  0  0  0  0
 16 20  1  0  0  0  0
 16 22  1  0  0  0  0
 17 23  1  0  0  0  0
 18 24  1  0  0  0  0
 21 25  2  0  0  0  0
 21 32  1  0  0  0  0
 22 26  2  0  0  0  0
 22 31  1  0  0  0  0
 23 27  2  0  0  0  0
 23 34  1  0  0  0  0
 24 28  2  0  0  0  0
 24 33  1  0  0  0  0
 25 27  1  0  0  0  0
 26 28  1  0  0  0  0
 27 36  1  0  0  0  0
 28 35  1  0  0  0  0
M  CHG  2   5  -1   6  -1
M  END
> <PUBCHEM_COMPOUND_CID>
6814581

> <PUBCHEM_COMPOUND_CANONICALIZED>
1

> <PUBCHEM_CACTVS_COMPLEXITY>
855

> <PUBCHEM_CACTVS_HBOND_ACCEPTOR>
10

> <PUBCHEM_CACTVS_HBOND_DONOR>
2

> <PUBCHEM_CACTVS_ROTATABLE_BOND>
0

> <PUBCHEM_CACTVS_SUBSKEYS>
AAADccB7PABgAAAAAAAAAAAAAAAAAWLAAAAwYAAAAAAAAFgBQAAAHgQQAAAADAyB2AAwwYLAAAKIAqRSQHDCAEAlAgAIiBmAZMgIIDrAlbGEIYhgkADIyccYiICOAAQAgAACAAAACAEAAAQAAAAAAAAAAA==

> <PUBCHEM_IUPAC_OPENEYE_NAME>
3-oxo-2-(3-oxo-5-sulfonato-indolin-2-ylidene)indoline-5-sulfonate

> <PUBCHEM_IUPAC_CAS_NAME>
3-oxo-2-(3-oxo-5-sulfonato-1H-indol-2-ylidene)-1H-indole-5-sulfonate

> <PUBCHEM_IUPAC_NAME>
3-oxo-2-(3-oxo-5-sulfonato-1H-indol-2-ylidene)-1H-indole-5-sulfonate

> <PUBCHEM_IUPAC_SYSTEMATIC_NAME>
3-oxidanylidene-2-(3-oxidanylidene-5-sulfonato-1H-indol-2-ylidene)-1H-indole-5-sulfonate

> <PUBCHEM_IUPAC_TRADITIONAL_NAME>
3-keto-2-(3-keto-5-sulfonato-indolin-2-ylidene)indoline-5-sulfonate

> <PUBCHEM_IUPAC_INCHI>
InChI=1S/C16H10N2O8S2/c19-15-9-5-7(27(21,22)23)1-3-11(9)17-13(15)14-16(20)10-6-8(28(24,25)26)2-4-12(10)18-14/h1-6,17-18H,(H,21,22,23)(H,24,25,26)/p-2

> <PUBCHEM_IUPAC_INCHIKEY>
CFZXDJWFRVEWSR-UHFFFAOYSA-L

> <PUBCHEM_XLOGP3>
1.1

> <PUBCHEM_EXACT_MASS>
419.972207

> <PUBCHEM_MOLECULAR_FORMULA>
C16H8N2O8S2-2

> <PUBCHEM_MOLECULAR_WEIGHT>
420.37332

> <PUBCHEM_OPENEYE_CAN_SMILES>
C1=CC2=C(C=C1S(=O)(=O)[O-])C(=O)C(=C3C(=O)C4=C(N3)C=CC(=C4)S(=O)(=O)[O-])N2

> <PUBCHEM_OPENEYE_ISO_SMILES>
C1=CC2=C(C=C1S(=O)(=O)[O-])C(=O)C(=C3C(=O)C4=C(N3)C=CC(=C4)S(=O)(=O)[O-])N2

> <PUBCHEM_CACTVS_TPSA>
189

> <PUBCHEM_MONOISOTOPIC_WEIGHT>
419.972207

> <PUBCHEM_TOTAL_CHARGE>
-2

> <PUBCHEM_HEAVY_ATOM_COUNT>
28

> <PUBCHEM_ATOM_DEF_STEREO_COUNT>
0

> <PUBCHEM_ATOM_UDEF_STEREO_COUNT>
0

> <PUBCHEM_BOND_DEF_STEREO_COUNT>
0

> <PUBCHEM_BOND_UDEF_STEREO_COUNT>
1

> <PUBCHEM_ISOTOPIC_ATOM_COUNT>
0

> <PUBCHEM_COMPONENT_COUNT>
1

> <PUBCHEM_CACTVS_TAUTO_COUNT>
23

> <PUBCHEM_COORDINATE_TYPE>
1
5
255

> <PUBCHEM_BONDANNOTATIONS>
13  14  1
15  17  8
15  21  8
16  18  8
16  22  8
17  23  8
18  24  8
21  25  8
22  26  8
23  27  8
24  28  8
25  27  8
26  28  8

$$$$
6819729
  -OEChem-11301217012D

 36 38  0     0  0  0  0  0  0999 V2000
    8.7141   -2.2971    0.0000 O   0  0  0  0  0  0  0  0  0  0  0  0
    5.3107    2.6086    0.0000 O   0  0  0  0  0  0  0  0  0  0  0  0
    7.1008   -2.9273    0.0000 O   0  0  0  0  0  0  0  0  0  0  0  0
    3.6393   -2.2972    0.0000 O   0  5  0  0  0  0  0  0  0  0  0  0
    5.2526   -2.9273    0.0000 O   0  0  0  0  0  0  0  0  0  0  0  0
    9.9867    1.1482    0.0000 O   0  5  0  0  0  0  0  0  0  0  0  0
   10.3534   -0.5446    0.0000 O   0  0  0  0  0  0  0  0  0  0  0  0
    2.0000   -0.5446    0.0000 O   0  5  0  0  0  0  0  0  0  0  0  0
    2.3666    1.1482    0.0000 O   0  0  0  0  0  0  0  0  0  0  0  0
    4.6279   -2.1465    0.0000 N   0  3  0  0  0  0  0  0  0  0  0  0
    6.1767    2.1086    0.0000 N   0  0  0  0  0  0  0  0  0  0  0  0
    9.6814    0.1960    0.0000 N   0  3  0  0  0  0  0  0  0  0  0  0
    2.6720    0.1960    0.0000 N   0  3  0  0  0  0  0  0  0  0  0  0
    6.6767   -0.4303    0.0000 C   0  0  0  0  0  0  0  0  0  0  0  0
    5.6767   -0.4303    0.0000 C   0  0  0  0  0  0  0  0  0  0  0  0
    6.9857    0.5208    0.0000 C   0  0  0  0  0  0  0  0  0  0  0  0
    5.3677    0.5208    0.0000 C   0  0  0  0  0  0  0  0  0  0  0  0
    6.1767    1.1086    0.0000 C   0  0  0  0  0  0  0  0  0  0  0  0
    7.3617   -1.2150    0.0000 C   0  0  0  0  0  0  0  0  0  0  0  0
    4.9917   -1.2150    0.0000 C   0  0  0  0  0  0  0  0  0  0  0  0
    8.0011    0.7530    0.0000 C   0  0  0  0  0  0  0  0  0  0  0  0
    4.3523    0.7530    0.0000 C   0  0  0  0  0  0  0  0  0  0  0  0
    8.3822   -1.0063    0.0000 C   0  0  0  0  0  0  0  0  0  0  0  0
    8.7040   -0.0157    0.0000 C   0  0  0  0  0  0  0  0  0  0  0  0
    3.6493   -0.0157    0.0000 C   0  0  0  0  0  0  0  0  0  0  0  0
    3.9712   -1.0063    0.0000 C   0  0  0  0  0  0  0  0  0  0  0  0
    7.7256   -2.1465    0.0000 C   0  0  0  0  0  0  0  0  0  0  0  0
    9.0780   -3.2285    0.0000 C   0  0  0  0  0  0  0  0  0  0  0  0
    8.1859    1.3449    0.0000 H   0  0  0  0  0  0  0  0  0  0  0  0
    4.1675    1.3449    0.0000 H   0  0  0  0  0  0  0  0  0  0  0  0
    8.7952   -1.4687    0.0000 H   0  0  0  0  0  0  0  0  0  0  0  0
    3.5581   -1.4687    0.0000 H   0  0  0  0  0  0  0  0  0  0  0  0
    5.3107    3.2285    0.0000 H   0  0  0  0  0  0  0  0  0  0  0  0
    8.5005   -3.4541    0.0000 H   0  0  0  0  0  0  0  0  0  0  0  0
    9.3036   -3.8060    0.0000 H   0  0  0  0  0  0  0  0  0  0  0  0
    9.6555   -3.0030    0.0000 H   0  0  0  0  0  0  0  0  0  0  0  0
  1 27  1  0  0  0  0
  1 28  1  0  0  0  0
  2 11  1  0  0  0  0
  2 33  1  0  0  0  0
  3 27  2  0  0  0  0
  4 10  1  0  0  0  0
  5 10  2  0  0  0  0
  6 12  1  0  0  0  0
  7 12  2  0  0  0  0
  8 13  1  0  0  0  0
  9 13  2  0  0  0  0
 10 20  1  0  0  0  0
 11 18  2  3  0  0  0
 12 24  1  0  0  0  0
 13 25  1  0  0  0  0
 14 15  1  0  0  0  0
 14 16  1  0  0  0  0
 14 19  2  0  0  0  0
 15 17  1  0  0  0  0
 15 20  2  0  0  0  0
 16 18  1  0  0  0  0
 16 21  2  0  0  0  0
 17 18  1  0  0  0  0
 17 22  2  0  0  0  0
 19 23  1  0  0  0  0
 19 27  1  0  0  0  0
 20 26  1  0  0  0  0
 21 24  1  0  0  0  0
 21 29  1  0  0  0  0
 22 25  1  0  0  0  0
 22 30  1  0  0  0  0
 23 24  2  0  0  0  0
 23 31  1  0  0  0  0
 25 26  2  0  0  0  0
 26 32  1  0  0  0  0
 28 34  1  0  0  0  0
 28 35  1  0  0  0  0
 28 36  1  0  0  0  0
M  CHG  6   4  -1   6  -1   8  -1  10   1  12   1  13   1
M  END
> <PUBCHEM_COMPOUND_CID>
6819729

> <PUBCHEM_COMPOUND_CANONICALIZED>
1

> <PUBCHEM_CACTVS_COMPLEXITY>
725

> <PUBCHEM_CACTVS_HBOND_ACCEPTOR>
10

> <PUBCHEM_CACTVS_HBOND_DONOR>
1

> <PUBCHEM_CACTVS_ROTATABLE_BOND>
2

> <PUBCHEM_CACTVS_SUBSKEYS>
AAADccBzvAAAAAAAAAAAAAAAAAAAAYAAAAAwYAAAAAAAAGABQAAAHgAECAAADAiBmAIyyIAQRACpAyTySwCCAAAkAgAgiAEgbNoIJrKA9dmAMQBkwAEI6Ye82fGeiAACQAQSAAAQAASACCQAAQAACAAAAA==

> <PUBCHEM_IUPAC_OPENEYE_NAME>
methyl 9-hydroxyimino-2,5,7-trinitro-fluorene-4-carboxylate

> <PUBCHEM_IUPAC_CAS_NAME>
9-hydroxyimino-2,5,7-trinitro-4-fluorenecarboxylic acid methyl ester

> <PUBCHEM_IUPAC_NAME>
methyl 9-hydroxyimino-2,5,7-trinitrofluorene-4-carboxylate

> <PUBCHEM_IUPAC_SYSTEMATIC_NAME>
methyl 9-hydroxyimino-2,5,7-trinitro-fluorene-4-carboxylate

> <PUBCHEM_IUPAC_TRADITIONAL_NAME>
9-hydroximino-2,5,7-trinitro-fluorene-4-carboxylic acid methyl ester

> <PUBCHEM_IUPAC_INCHI>
InChI=1S/C15H8N4O9/c1-28-15(20)10-4-6(17(22)23)2-8-12(10)13-9(14(8)16-21)3-7(18(24)25)5-11(13)19(26)27/h2-5,21H,1H3

> <PUBCHEM_IUPAC_INCHIKEY>
SXTVVRDTFBXEHR-UHFFFAOYSA-N

> <PUBCHEM_XLOGP3>
2.7

> <PUBCHEM_EXACT_MASS>
388.029128

> <PUBCHEM_MOLECULAR_FORMULA>
C15H8N4O9

> <PUBCHEM_MOLECULAR_WEIGHT>
388.24542

> <PUBCHEM_OPENEYE_CAN_SMILES>
COC(=O)C1=C2C(=CC(=C1)[N+](=O)[O-])C(=NO)C3=CC(=CC(=C32)[N+](=O)[O-])[N+](=O)[O-]

> <PUBCHEM_OPENEYE_ISO_SMILES>
COC(=O)C1=C2C(=CC(=C1)[N+](=O)[O-])C(=NO)C3=CC(=CC(=C32)[N+](=O)[O-])[N+](=O)[O-]

> <PUBCHEM_CACTVS_TPSA>
196

> <PUBCHEM_MONOISOTOPIC_WEIGHT>
388.029128

> <PUBCHEM_TOTAL_CHARGE>
0

> <PUBCHEM_HEAVY_ATOM_COUNT>
28

> <PUBCHEM_ATOM_DEF_STEREO_COUNT>
0

> <PUBCHEM_ATOM_UDEF_STEREO_COUNT>
0

> <PUBCHEM_BOND_DEF_STEREO_COUNT>
0

> <PUBCHEM_BOND_UDEF_STEREO_COUNT>
1

> <PUBCHEM_ISOTOPIC_ATOM_COUNT>
0

> <PUBCHEM_COMPONENT_COUNT>
1

> <PUBCHEM_CACTVS_TAUTO_COUNT>
2

> <PUBCHEM_COORDINATE_TYPE>
1
5
255

> <PUBCHEM_BONDANNOTATIONS>
11  18  1
14  16  8
14  19  8
15  17  8
15  20  8
16  21  8
17  22  8
19  23  8
20  26  8
21  24  8
22  25  8
23  24  8
25  26  8

$$$$
6822067
  -OEChem-11301217022D

 45 47  0     0  0  0  0  0  0999 V2000
    4.5981    2.7500    0.0000 S   0  0  0  0  0  0  0  0  0  0  0  0
    5.5981    2.7500    0.0000 O   0  0  0  0  0  0  0  0  0  0  0  0
    3.5981    2.7500    0.0000 O   0  0  0  0  0  0  0  0  0  0  0  0
    6.3301    2.7500    0.0000 O   0  0  0  0  0  0  0  0  0  0  0  0
    2.0000   -2.7500    0.0000 O   0  0  0  0  0  0  0  0  0  0  0  0
    5.4641   -5.7500    0.0000 O   0  5  0  0  0  0  0  0  0  0  0  0
    6.3301   -4.2500    0.0000 O   0  0  0  0  0  0  0  0  0  0  0  0
    4.5981    3.7500    0.0000 N   0  0  0  0  0  0  0  0  0  0  0  0
    4.5981   -1.2500    0.0000 N   0  0  0  0  0  0  0  0  0  0  0  0
    5.4641    5.2500    0.0000 N   0  0  0  0  0  0  0  0  0  0  0  0
    7.1962    4.2500    0.0000 N   0  0  0  0  0  0  0  0  0  0  0  0
    5.4641   -4.7500    0.0000 N   0  3  0  0  0  0  0  0  0  0  0  0
    4.5981    1.7500    0.0000 C   0  0  0  0  0  0  0  0  0  0  0  0
    4.5981   -0.2500    0.0000 C   0  0  0  0  0  0  0  0  0  0  0  0
    3.7320    1.2500    0.0000 C   0  0  0  0  0  0  0  0  0  0  0  0
    5.4641    1.2500    0.0000 C   0  0  0  0  0  0  0  0  0  0  0  0
    3.7320    0.2500    0.0000 C   0  0  0  0  0  0  0  0  0  0  0  0
    5.4641    0.2500    0.0000 C   0  0  0  0  0  0  0  0  0  0  0  0
    5.4641    4.2500    0.0000 C   0  0  0  0  0  0  0  0  0  0  0  0
    3.7320   -2.7500    0.0000 C   0  0  0  0  0  0  0  0  0  0  0  0
    3.7320   -1.7500    0.0000 C   0  0  0  0  0  0  0  0  0  0  0  0
    4.5981   -3.2500    0.0000 C   0  0  0  0  0  0  0  0  0  0  0  0
    2.8660   -3.2500    0.0000 C   0  0  0  0  0  0  0  0  0  0  0  0
    6.3301    3.7500    0.0000 C   0  0  0  0  0  0  0  0  0  0  0  0
    4.5981   -4.2500    0.0000 C   0  0  0  0  0  0  0  0  0  0  0  0
    2.8660   -4.2500    0.0000 C   0  0  0  0  0  0  0  0  0  0  0  0
    3.7320   -4.7500    0.0000 C   0  0  0  0  0  0  0  0  0  0  0  0
    6.3301    5.7500    0.0000 C   0  0  0  0  0  0  0  0  0  0  0  0
    7.1962    5.2500    0.0000 C   0  0  0  0  0  0  0  0  0  0  0  0
    7.1962    2.2500    0.0000 C   0  0  0  0  0  0  0  0  0  0  0  0
    3.1951    1.5600    0.0000 H   0  0  0  0  0  0  0  0  0  0  0  0
    6.0010    1.5600    0.0000 H   0  0  0  0  0  0  0  0  0  0  0  0
    3.1951   -0.0600    0.0000 H   0  0  0  0  0  0  0  0  0  0  0  0
    6.0010   -0.0600    0.0000 H   0  0  0  0  0  0  0  0  0  0  0  0
    4.0611    4.0600    0.0000 H   0  0  0  0  0  0  0  0  0  0  0  0
    5.1350   -1.5600    0.0000 H   0  0  0  0  0  0  0  0  0  0  0  0
    3.1951   -1.4400    0.0000 H   0  0  0  0  0  0  0  0  0  0  0  0
    5.1350   -2.9400    0.0000 H   0  0  0  0  0  0  0  0  0  0  0  0
    2.3291   -4.5600    0.0000 H   0  0  0  0  0  0  0  0  0  0  0  0
    3.7320   -5.3700    0.0000 H   0  0  0  0  0  0  0  0  0  0  0  0
    6.3301    6.3700    0.0000 H   0  0  0  0  0  0  0  0  0  0  0  0
    7.7331    5.5600    0.0000 H   0  0  0  0  0  0  0  0  0  0  0  0
    6.8862    1.7131    0.0000 H   0  0  0  0  0  0  0  0  0  0  0  0
    7.7331    1.9400    0.0000 H   0  0  0  0  0  0  0  0  0  0  0  0
    7.5062    2.7869    0.0000 H   0  0  0  0  0  0  0  0  0  0  0  0
  1  2  2  0  0  0  0
  1  3  2  0  0  0  0
  1  8  1  0  0  0  0
  1 13  1  0  0  0  0
  4 24  1  0  0  0  0
  4 30  1  0  0  0  0
  5 23  2  0  0  0  0
  6 12  1  0  0  0  0
  7 12  2  0  0  0  0
  8 19  1  0  0  0  0
  8 35  1  0  0  0  0
  9 14  1  0  0  0  0
  9 21  1  0  0  0  0
  9 36  1  0  0  0  0
 10 19  2  0  0  0  0
 10 28  1  0  0  0  0
 11 24  2  0  0  0  0
 11 29  1  0  0  0  0
 12 25  1  0  0  0  0
 13 15  2  0  0  0  0
 13 16  1  0  0  0  0
 14 17  2  0  0  0  0
 14 18  1  0  0  0  0
 15 17  1  0  0  0  0
 15 31  1  0  0  0  0
 16 18  2  0  0  0  0
 16 32  1  0  0  0  0
 17 33  1  0  0  0  0
 18 34  1  0  0  0  0
 19 24  1  0  0  0  0
 20 21  2  3  0  0  0
 20 22  1  0  0  0  0
 20 23  1  0  0  0  0
 21 37  1  0  0  0  0
 22 25  2  0  0  0  0
 22 38  1  0  0  0  0
 23 26  1  0  0  0  0
 25 27  1  0  0  0  0
 26 27  2  0  0  0  0
 26 39  1  0  0  0  0
 27 40  1  0  0  0  0
 28 29  2  0  0  0  0
 28 41  1  0  0  0  0
 29 42  1  0  0  0  0
 30 43  1  0  0  0  0
 30 44  1  0  0  0  0
 30 45  1  0  0  0  0
M  CHG  2   6  -1  12   1
M  END
> <PUBCHEM_COMPOUND_CID>
6822067

> <PUBCHEM_COMPOUND_CANONICALIZED>
1

> <PUBCHEM_CACTVS_COMPLEXITY>
849

> <PUBCHEM_CACTVS_HBOND_ACCEPTOR>
10

> <PUBCHEM_CACTVS_HBOND_DONOR>
2

> <PUBCHEM_CACTVS_ROTATABLE_BOND>
6

> <PUBCHEM_CACTVS_SUBSKEYS>
AAADccB7uABAAAAAAAAAAAAAAAAAAAAAAAA8QIAAAAAAAAABwAAAHgQUQAAADAzB0gY/9ZLYVAKpArZ3Z3TCiD0xUiAoyJkZdMiOYGLAkZGVIAhgkALYyecQAAAAAAQAAAAAAAAACAAAAAAAAAAAAAAAAA==

> <PUBCHEM_IUPAC_OPENEYE_NAME>
N-(3-methoxypyrazin-2-yl)-4-[(3-nitro-6-oxo-cyclohexa-2,4-dien-1-ylidene)methylamino]benzenesulfonamide

> <PUBCHEM_IUPAC_CAS_NAME>
N-(3-methoxy-2-pyrazinyl)-4-[(3-nitro-6-oxo-1-cyclohexa-2,4-dienylidene)methylamino]benzenesulfonamide

> <PUBCHEM_IUPAC_NAME>
N-(3-methoxypyrazin-2-yl)-4-[(3-nitro-6-oxocyclohexa-2,4-dien-1-ylidene)methylamino]benzenesulfonamide

> <PUBCHEM_IUPAC_SYSTEMATIC_NAME>
N-(3-methoxypyrazin-2-yl)-4-[(3-nitro-6-oxidanylidene-cyclohexa-2,4-dien-1-ylidene)methylamino]benzenesulfonamide

> <PUBCHEM_IUPAC_TRADITIONAL_NAME>
4-[(6-keto-3-nitro-cyclohexa-2,4-dien-1-ylidene)methylamino]-N-(3-methoxypyrazin-2-yl)benzenesulfonamide

> <PUBCHEM_IUPAC_INCHI>
InChI=1S/C18H15N5O6S/c1-29-18-17(19-8-9-20-18)22-30(27,28)15-5-2-13(3-6-15)21-11-12-10-14(23(25)26)4-7-16(12)24/h2-11,21H,1H3,(H,19,22)

> <PUBCHEM_IUPAC_INCHIKEY>
BMNZBHMOIJJYFY-UHFFFAOYSA-N

> <PUBCHEM_XLOGP3>
1.9

> <PUBCHEM_EXACT_MASS>
429.074304

> <PUBCHEM_MOLECULAR_FORMULA>
C18H15N5O6S

> <PUBCHEM_MOLECULAR_WEIGHT>
429.4066

> <PUBCHEM_OPENEYE_CAN_SMILES>
COC1=NC=CN=C1NS(=O)(=O)C2=CC=C(C=C2)NC=C3C=C(C=CC3=O)[N+](=O)[O-]

> <PUBCHEM_OPENEYE_ISO_SMILES>
COC1=NC=CN=C1NS(=O)(=O)C2=CC=C(C=C2)NC=C3C=C(C=CC3=O)[N+](=O)[O-]

> <PUBCHEM_CACTVS_TPSA>
165

> <PUBCHEM_MONOISOTOPIC_WEIGHT>
429.074304

> <PUBCHEM_TOTAL_CHARGE>
0

> <PUBCHEM_HEAVY_ATOM_COUNT>
30

> <PUBCHEM_ATOM_DEF_STEREO_COUNT>
0

> <PUBCHEM_ATOM_UDEF_STEREO_COUNT>
0

> <PUBCHEM_BOND_DEF_STEREO_COUNT>
0

> <PUBCHEM_BOND_UDEF_STEREO_COUNT>
1

> <PUBCHEM_ISOTOPIC_ATOM_COUNT>
0

> <PUBCHEM_COMPONENT_COUNT>
1

> <PUBCHEM_CACTVS_TAUTO_COUNT>
8

> <PUBCHEM_COORDINATE_TYPE>
1
5
255

> <PUBCHEM_BONDANNOTATIONS>
10  19  8
10  28  8
11  24  8
11  29  8
13  15  8
13  16  8
14  17  8
14  18  8
15  17  8
16  18  8
19  24  8
20  21  1
28  29  8

$$$$
