55528980
  -OEChem-11301218082D

 48 49  0     0  0  0  0  0  0999 V2000
    6.3301   -4.9050    0.0000 S   0  0  0  0  0  0  0  0  0  0  0  0
    4.5981    5.0950    0.0000 S   0  0  0  0  0  0  0  0  0  0  0  0
    6.3301   -0.9050    0.0000 O   0  0  0  0  0  0  0  0  0  0  0  0
    4.5981    1.0950    0.0000 O   0  0  0  0  0  0  0  0  0  0  0  0
    7.3301   -4.9050    0.0000 O   0  0  0  0  0  0  0  0  0  0  0  0
    5.3301   -4.9050    0.0000 O   0  0  0  0  0  0  0  0  0  0  0  0
    5.5981    5.0950    0.0000 O   0  0  0  0  0  0  0  0  0  0  0  0
    3.5981    5.0950    0.0000 O   0  0  0  0  0  0  0  0  0  0  0  0
    2.0000    2.5950    0.0000 O   0  5  0  0  0  0  0  0  0  0  0  0
    2.8660    1.0950    0.0000 O   0  0  0  0  0  0  0  0  0  0  0  0
    6.3301   -5.9050    0.0000 N   0  0  0  0  0  0  0  0  0  0  0  0
    2.8660    2.0950    0.0000 N   0  3  0  0  0  0  0  0  0  0  0  0
    4.5981    6.0950    0.0000 N   0  0  0  0  0  0  0  0  0  0  0  0
    6.3301   -3.9050    0.0000 C   0  0  0  0  0  0  0  0  0  0  0  0
    7.1962   -3.4050    0.0000 C   0  0  0  0  0  0  0  0  0  0  0  0
    5.4641   -3.4050    0.0000 C   0  0  0  0  0  0  0  0  0  0  0  0
    6.3301   -1.9050    0.0000 C   0  0  0  0  0  0  0  0  0  0  0  0
    4.5981    4.0950    0.0000 C   0  0  0  0  0  0  0  0  0  0  0  0
    4.5981    2.0950    0.0000 C   0  0  0  0  0  0  0  0  0  0  0  0
    7.1962   -2.4050    0.0000 C   0  0  0  0  0  0  0  0  0  0  0  0
    5.4641   -2.4050    0.0000 C   0  0  0  0  0  0  0  0  0  0  0  0
    5.4641   -0.4050    0.0000 C   0  0  0  0  0  0  0  0  0  0  0  0
    5.4641    0.5950    0.0000 C   0  0  0  0  0  0  0  0  0  0  0  0
    3.7320    2.5950    0.0000 C   0  0  0  0  0  0  0  0  0  0  0  0
    3.7320    3.5950    0.0000 C   0  0  0  0  0  0  0  0  0  0  0  0
    7.1962   -6.4050    0.0000 C   0  0  0  0  0  0  0  0  0  0  0  0
    5.4641   -6.4050    0.0000 C   0  0  0  0  0  0  0  0  0  0  0  0
    5.4641    3.5950    0.0000 C   0  0  0  0  0  0  0  0  0  0  0  0
    5.4641    2.5950    0.0000 C   0  0  0  0  0  0  0  0  0  0  0  0
    7.7331   -3.7150    0.0000 H   0  0  0  0  0  0  0  0  0  0  0  0
    4.9272   -3.7150    0.0000 H   0  0  0  0  0  0  0  0  0  0  0  0
    4.8535   -0.2973    0.0000 H   0  0  0  0  0  0  0  0  0  0  0  0
    5.2520   -0.9876    0.0000 H   0  0  0  0  0  0  0  0  0  0  0  0
    7.7331   -2.0950    0.0000 H   0  0  0  0  0  0  0  0  0  0  0  0
    4.9272   -2.0950    0.0000 H   0  0  0  0  0  0  0  0  0  0  0  0
    6.0747    0.4873    0.0000 H   0  0  0  0  0  0  0  0  0  0  0  0
    5.6762    1.1776    0.0000 H   0  0  0  0  0  0  0  0  0  0  0  0
    3.1951    3.9050    0.0000 H   0  0  0  0  0  0  0  0  0  0  0  0
    5.1541   -5.8681    0.0000 H   0  0  0  0  0  0  0  0  0  0  0  0
    4.9272   -6.7150    0.0000 H   0  0  0  0  0  0  0  0  0  0  0  0
    6.8862   -6.9419    0.0000 H   0  0  0  0  0  0  0  0  0  0  0  0
    7.7331   -6.7150    0.0000 H   0  0  0  0  0  0  0  0  0  0  0  0
    7.5062   -5.8681    0.0000 H   0  0  0  0  0  0  0  0  0  0  0  0
    5.7741   -6.9419    0.0000 H   0  0  0  0  0  0  0  0  0  0  0  0
    6.0010    3.9050    0.0000 H   0  0  0  0  0  0  0  0  0  0  0  0
    6.0010    2.2850    0.0000 H   0  0  0  0  0  0  0  0  0  0  0  0
    5.1350    6.4050    0.0000 H   0  0  0  0  0  0  0  0  0  0  0  0
    4.0611    6.4050    0.0000 H   0  0  0  0  0  0  0  0  0  0  0  0
  1  5  2  0  0  0  0
  1  6  2  0  0  0  0
  1 11  1  0  0  0  0
  1 14  1  0  0  0  0
  2  7  2  0  0  0  0
  2  8  2  0  0  0  0
  2 13  1  0  0  0  0
  2 18  1  0  0  0  0
  3 17  1  0  0  0  0
  3 22  1  0  0  0  0
  4 19  1  0  0  0  0
  4 23  1  0  0  0  0
  9 12  1  0  0  0  0
 10 12  2  0  0  0  0
 11 26  1  0  0  0  0
 11 27  1  0  0  0  0
 12 24  1  0  0  0  0
 13 47  1  0  0  0  0
 13 48  1  0  0  0  0
 14 15  2  0  0  0  0
 14 16  1  0  0  0  0
 15 20  1  0  0  0  0
 15 30  1  0  0  0  0
 16 21  2  0  0  0  0
 16 31  1  0  0  0  0
 17 20  2  0  0  0  0
 17 21  1  0  0  0  0
 18 25  2  0  0  0  0
 18 28  1  0  0  0  0
 19 24  2  0  0  0  0
 19 29  1  0  0  0  0
 20 34  1  0  0  0  0
 21 35  1  0  0  0  0
 22 23  1  0  0  0  0
 22 32  1  0  0  0  0
 22 33  1  0  0  0  0
 23 36  1  0  0  0  0
 23 37  1  0  0  0  0
 24 25  1  0  0  0  0
 25 38  1  0  0  0  0
 26 41  1  0  0  0  0
 26 42  1  0  0  0  0
 26 43  1  0  0  0  0
 27 39  1  0  0  0  0
 27 40  1  0  0  0  0
 27 44  1  0  0  0  0
 28 29  2  0  0  0  0
 28 45  1  0  0  0  0
 29 46  1  0  0  0  0
M  CHG  2   9  -1  12   1
M  END
> <PUBCHEM_COMPOUND_CID>
55528980

> <PUBCHEM_COMPOUND_CANONICALIZED>
1

> <PUBCHEM_CACTVS_COMPLEXITY>
747

> <PUBCHEM_CACTVS_HBOND_ACCEPTOR>
10

> <PUBCHEM_CACTVS_HBOND_DONOR>
1

> <PUBCHEM_CACTVS_ROTATABLE_BOND>
8

> <PUBCHEM_CACTVS_SUBSKEYS>
AAADceB7PABgAAAAAAAAAAAAAAAAAAAAAAAwYAAAAAAAAAABQAAAHgQUQAAACAyh0AYyx4IQRAKBACRCQ3DCCBAgIgAoiBgPbIoPJiKEsZuDOCTkwFEK6AeQQAAAAIAAACAAEAABAAAAQAAgAAAAAAAAAA==

> <PUBCHEM_IUPAC_OPENEYE_NAME>
4-[2-[4-(dimethylsulfamoyl)phenoxy]ethoxy]-3-nitro-benzenesulfonamide

> <PUBCHEM_IUPAC_CAS_NAME>
4-[2-[4-(dimethylsulfamoyl)phenoxy]ethoxy]-3-nitrobenzenesulfonamide

> <PUBCHEM_IUPAC_NAME>
4-[2-[4-(dimethylsulfamoyl)phenoxy]ethoxy]-3-nitrobenzenesulfonamide

> <PUBCHEM_IUPAC_SYSTEMATIC_NAME>
4-[2-[4-(dimethylsulfamoyl)phenoxy]ethoxy]-3-nitro-benzenesulfonamide

> <PUBCHEM_IUPAC_TRADITIONAL_NAME>
4-[2-[4-(dimethylsulfamoyl)phenoxy]ethoxy]-3-nitro-benzenesulfonamide

> <PUBCHEM_IUPAC_INCHI>
InChI=1S/C16H19N3O8S2/c1-18(2)29(24,25)13-5-3-12(4-6-13)26-9-10-27-16-8-7-14(28(17,22)23)11-15(16)19(20)21/h3-8,11H,9-10H2,1-2H3,(H2,17,22,23)

> <PUBCHEM_IUPAC_INCHIKEY>
DFHDBLBZXVRDEN-UHFFFAOYSA-N

> <PUBCHEM_XLOGP3>
1.5

> <PUBCHEM_EXACT_MASS>
445.061357

> <PUBCHEM_MOLECULAR_FORMULA>
C16H19N3O8S2

> <PUBCHEM_MOLECULAR_WEIGHT>
445.46736

> <PUBCHEM_OPENEYE_CAN_SMILES>
CN(C)S(=O)(=O)C1=CC=C(C=C1)OCCOC2=C(C=C(C=C2)S(=O)(=O)N)[N+](=O)[O-]

> <PUBCHEM_OPENEYE_ISO_SMILES>
CN(C)S(=O)(=O)C1=CC=C(C=C1)OCCOC2=C(C=C(C=C2)S(=O)(=O)N)[N+](=O)[O-]

> <PUBCHEM_CACTVS_TPSA>
179

> <PUBCHEM_MONOISOTOPIC_WEIGHT>
445.061357

> <PUBCHEM_TOTAL_CHARGE>
0

> <PUBCHEM_HEAVY_ATOM_COUNT>
29

> <PUBCHEM_ATOM_DEF_STEREO_COUNT>
0

> <PUBCHEM_ATOM_UDEF_STEREO_COUNT>
0

> <PUBCHEM_BOND_DEF_STEREO_COUNT>
0

> <PUBCHEM_BOND_UDEF_STEREO_COUNT>
0

> <PUBCHEM_ISOTOPIC_ATOM_COUNT>
0

> <PUBCHEM_COMPONENT_COUNT>
1

> <PUBCHEM_CACTVS_TAUTO_COUNT>
1

> <PUBCHEM_COORDINATE_TYPE>
1
5
255

> <PUBCHEM_BONDANNOTATIONS>
14  15  8
14  16  8
15  20  8
16  21  8
17  20  8
17  21  8
18  25  8
18  28  8
19  24  8
19  29  8
24  25  8
28  29  8

$$$$
