27795937
  -OEChem-12041211332D

 51 53  0     0  0  0  0  0  0999 V2000
    5.6103   -0.0573    0.0000 O   0  0  0  0  0  0  0  0  0  0  0  0
    4.6783   -4.5184    0.0000 N   0  0  0  0  0  0  0  0  0  0  0  0
    7.2566   -0.5954    0.0000 N   0  0  0  0  0  0  0  0  0  0  0  0
    4.6783   -2.9089    0.0000 C   0  0  0  0  0  0  0  0  0  0  0  0
    4.9889   -1.9584    0.0000 C   0  0  0  0  0  0  0  0  0  0  0  0
    3.7321   -3.2136    0.0000 C   0  0  0  0  0  0  0  0  0  0  0  0
    5.9674   -1.7522    0.0000 C   0  0  0  0  0  0  0  0  0  0  0  0
    9.7884    4.3634    0.0000 C   0  0  0  0  0  0  0  0  0  0  0  0
    8.5458    0.5613    0.0000 C   0  0  0  0  0  0  0  0  0  0  0  0
    9.4778    3.4129    0.0000 C   0  0  0  0  0  0  0  0  0  0  0  0
    3.7321   -4.2136    0.0000 C   0  0  0  0  0  0  0  0  0  0  0  0
    8.8564    1.5118    0.0000 C   0  0  0  0  0  0  0  0  0  0  0  0
    7.5673    0.3551    0.0000 C   0  0  0  0  0  0  0  0  0  0  0  0
    5.2619   -3.7136    0.0000 C   0  0  0  0  0  0  0  0  0  0  0  0
    6.2781   -0.8016    0.0000 C   0  0  0  0  0  0  0  0  0  0  0  0
   10.1456    2.6686    0.0000 C   0  0  0  0  0  0  0  0  0  0  0  0
    8.4993    3.2066    0.0000 C   0  0  0  0  0  0  0  0  0  0  0  0
    9.8349    1.7181    0.0000 C   0  0  0  0  0  0  0  0  0  0  0  0
    8.1886    2.2561    0.0000 C   0  0  0  0  0  0  0  0  0  0  0  0
    2.8660   -2.7136    0.0000 C   0  0  0  0  0  0  0  0  0  0  0  0
   10.7669    4.5696    0.0000 C   0  0  0  0  0  0  0  0  0  0  0  0
    9.1206    5.1077    0.0000 C   0  0  0  0  0  0  0  0  0  0  0  0
    2.8660   -4.7136    0.0000 C   0  0  0  0  0  0  0  0  0  0  0  0
    2.0000   -3.2136    0.0000 C   0  0  0  0  0  0  0  0  0  0  0  0
    2.0000   -4.2136    0.0000 C   0  0  0  0  0  0  0  0  0  0  0  0
    4.9684   -1.3387    0.0000 H   0  0  0  0  0  0  0  0  0  0  0  0
    4.3751   -1.8710    0.0000 H   0  0  0  0  0  0  0  0  0  0  0  0
    9.9810    4.9527    0.0000 H   0  0  0  0  0  0  0  0  0  0  0  0
    5.9880   -2.3718    0.0000 H   0  0  0  0  0  0  0  0  0  0  0  0
    6.5813   -1.8395    0.0000 H   0  0  0  0  0  0  0  0  0  0  0  0
    8.5663   -0.0583    0.0000 H   0  0  0  0  0  0  0  0  0  0  0  0
    9.1596    0.4740    0.0000 H   0  0  0  0  0  0  0  0  0  0  0  0
    7.5467    0.9748    0.0000 H   0  0  0  0  0  0  0  0  0  0  0  0
    6.9535    0.4424    0.0000 H   0  0  0  0  0  0  0  0  0  0  0  0
    5.8819   -3.7136    0.0000 H   0  0  0  0  0  0  0  0  0  0  0  0
    4.8709   -5.1077    0.0000 H   0  0  0  0  0  0  0  0  0  0  0  0
   10.7523    2.7964    0.0000 H   0  0  0  0  0  0  0  0  0  0  0  0
    8.0852    3.6681    0.0000 H   0  0  0  0  0  0  0  0  0  0  0  0
    7.6707   -1.0569    0.0000 H   0  0  0  0  0  0  0  0  0  0  0  0
   10.2490    1.2566    0.0000 H   0  0  0  0  0  0  0  0  0  0  0  0
    7.5819    2.1283    0.0000 H   0  0  0  0  0  0  0  0  0  0  0  0
    2.8660   -2.0936    0.0000 H   0  0  0  0  0  0  0  0  0  0  0  0
   10.8948    3.9629    0.0000 H   0  0  0  0  0  0  0  0  0  0  0  0
   11.3736    4.6975    0.0000 H   0  0  0  0  0  0  0  0  0  0  0  0
   10.6391    5.1763    0.0000 H   0  0  0  0  0  0  0  0  0  0  0  0
    9.5821    5.5218    0.0000 H   0  0  0  0  0  0  0  0  0  0  0  0
    8.7065    5.5692    0.0000 H   0  0  0  0  0  0  0  0  0  0  0  0
    8.6591    4.6936    0.0000 H   0  0  0  0  0  0  0  0  0  0  0  0
    2.8660   -5.3336    0.0000 H   0  0  0  0  0  0  0  0  0  0  0  0
    1.4631   -2.9036    0.0000 H   0  0  0  0  0  0  0  0  0  0  0  0
    1.4631   -4.5236    0.0000 H   0  0  0  0  0  0  0  0  0  0  0  0
  1 15  2  0  0  0  0
  2 11  1  0  0  0  0
  2 14  1  0  0  0  0
  2 36  1  0  0  0  0
  3 13  1  0  0  0  0
  3 15  1  0  0  0  0
  3 39  1  0  0  0  0
  4  5  1  0  0  0  0
  4  6  1  0  0  0  0
  4 14  2  0  0  0  0
  5  7  1  0  0  0  0
  5 26  1  0  0  0  0
  5 27  1  0  0  0  0
  6 11  1  0  0  0  0
  6 20  2  0  0  0  0
  7 15  1  0  0  0  0
  7 29  1  0  0  0  0
  7 30  1  0  0  0  0
  8 10  1  0  0  0  0
  8 21  1  0  0  0  0
  8 22  1  0  0  0  0
  8 28  1  0  0  0  0
  9 12  1  0  0  0  0
  9 13  1  0  0  0  0
  9 31  1  0  0  0  0
  9 32  1  0  0  0  0
 10 16  2  0  0  0  0
 10 17  1  0  0  0  0
 11 23  2  0  0  0  0
 12 18  2  0  0  0  0
 12 19  1  0  0  0  0
 13 33  1  0  0  0  0
 13 34  1  0  0  0  0
 14 35  1  0  0  0  0
 16 18  1  0  0  0  0
 16 37  1  0  0  0  0
 17 19  2  0  0  0  0
 17 38  1  0  0  0  0
 18 40  1  0  0  0  0
 19 41  1  0  0  0  0
 20 24  1  0  0  0  0
 20 42  1  0  0  0  0
 21 43  1  0  0  0  0
 21 44  1  0  0  0  0
 21 45  1  0  0  0  0
 22 46  1  0  0  0  0
 22 47  1  0  0  0  0
 22 48  1  0  0  0  0
 23 25  1  0  0  0  0
 23 49  1  0  0  0  0
 24 25  2  0  0  0  0
 24 50  1  0  0  0  0
 25 51  1  0  0  0  0
M  END
> <PUBCHEM_COMPOUND_CID>
27795937

> <PUBCHEM_COMPOUND_CANONICALIZED>
1

> <PUBCHEM_CACTVS_COMPLEXITY>
414

> <PUBCHEM_CACTVS_HBOND_ACCEPTOR>
1

> <PUBCHEM_CACTVS_HBOND_DONOR>
2

> <PUBCHEM_CACTVS_ROTATABLE_BOND>
7

> <PUBCHEM_CACTVS_SUBSKEYS>
AAADceB7IAAAAAAAAAAAAAAAAAAAAWAAAAAwYAAAAAAAAFgB9AAAHgAQAAAADQjBngQ+wPLJkACoAzV3VACCgCAxAiAI2aE4ZJgIIPLAkZGEIAhglgDIyAcYicCOwAAAAAACAACAAAAAAAQAAAAAAAAAAA==

> <PUBCHEM_IUPAC_OPENEYE_NAME>
3-(1H-indol-3-yl)-N-[2-(4-isopropylphenyl)ethyl]propanamide

> <PUBCHEM_IUPAC_CAS_NAME>
3-(1H-indol-3-yl)-N-[2-(4-propan-2-ylphenyl)ethyl]propanamide

> <PUBCHEM_IUPAC_NAME>
3-(1H-indol-3-yl)-N-[2-(4-propan-2-ylphenyl)ethyl]propanamide

> <PUBCHEM_IUPAC_SYSTEMATIC_NAME>
3-(1H-indol-3-yl)-N-[2-(4-propan-2-ylphenyl)ethyl]propanamide

> <PUBCHEM_IUPAC_TRADITIONAL_NAME>
3-(1H-indol-3-yl)-N-(2-p-cumenylethyl)propionamide

> <PUBCHEM_IUPAC_INCHI>
InChI=1S/C22H26N2O/c1-16(2)18-9-7-17(8-10-18)13-14-23-22(25)12-11-19-15-24-21-6-4-3-5-20(19)21/h3-10,15-16,24H,11-14H2,1-2H3,(H,23,25)

> <PUBCHEM_IUPAC_INCHIKEY>
QLXKNPNJBZTNAC-UHFFFAOYSA-N

> <PUBCHEM_XLOGP3>
4.6

> <PUBCHEM_EXACT_MASS>
334.204513

> <PUBCHEM_MOLECULAR_FORMULA>
C22H26N2O

> <PUBCHEM_MOLECULAR_WEIGHT>
334.45464

> <PUBCHEM_OPENEYE_CAN_SMILES>
CC(C)C1=CC=C(C=C1)CCNC(=O)CCC2=CNC3=CC=CC=C32

> <PUBCHEM_OPENEYE_ISO_SMILES>
CC(C)C1=CC=C(C=C1)CCNC(=O)CCC2=CNC3=CC=CC=C32

> <PUBCHEM_CACTVS_TPSA>
44.9

> <PUBCHEM_MONOISOTOPIC_WEIGHT>
334.204513

> <PUBCHEM_TOTAL_CHARGE>
0

> <PUBCHEM_HEAVY_ATOM_COUNT>
25

> <PUBCHEM_ATOM_DEF_STEREO_COUNT>
0

> <PUBCHEM_ATOM_UDEF_STEREO_COUNT>
0

> <PUBCHEM_BOND_DEF_STEREO_COUNT>
0

> <PUBCHEM_BOND_UDEF_STEREO_COUNT>
0

> <PUBCHEM_ISOTOPIC_ATOM_COUNT>
0

> <PUBCHEM_COMPONENT_COUNT>
1

> <PUBCHEM_CACTVS_TAUTO_COUNT>
2

> <PUBCHEM_COORDINATE_TYPE>
1
5
255

> <PUBCHEM_BONDANNOTATIONS>
10  16  8
10  17  8
11  23  8
12  18  8
12  19  8
16  18  8
17  19  8
2  11  8
2  14  8
20  24  8
23  25  8
24  25  8
4  14  8
4  6  8
6  11  8
6  20  8

$$$$
