20872048
  -OEChem-12041211022D

 19 19  0     0  0  0  0  0  0999 V2000
    2.0000   -0.0600    0.0000 Cl  0  0  0  0  0  0  0  0  0  0  0  0
    2.8660    1.4400    0.0000 O   0  0  0  0  0  0  0  0  0  0  0  0
    4.5981    1.4400    0.0000 N   0  0  0  0  0  0  0  0  0  0  0  0
    4.5981   -1.5600    0.0000 C   0  0  0  0  0  0  0  0  0  0  0  0
    3.7320   -0.0600    0.0000 C   0  0  0  0  0  0  0  0  0  0  0  0
    4.5981   -0.5600    0.0000 C   0  0  0  0  0  0  0  0  0  0  0  0
    3.7320   -2.0600    0.0000 C   0  0  0  0  0  0  0  0  0  0  0  0
    2.8660   -0.5600    0.0000 C   0  0  0  0  0  0  0  0  0  0  0  0
    2.8660   -1.5600    0.0000 C   0  0  0  0  0  0  0  0  0  0  0  0
    5.4641   -2.0600    0.0000 C   0  0  0  0  0  0  0  0  0  0  0  0
    3.7320    0.9400    0.0000 C   0  0  0  0  0  0  0  0  0  0  0  0
    5.1350   -0.2500    0.0000 H   0  0  0  0  0  0  0  0  0  0  0  0
    3.7320   -2.6800    0.0000 H   0  0  0  0  0  0  0  0  0  0  0  0
    2.3291   -1.8700    0.0000 H   0  0  0  0  0  0  0  0  0  0  0  0
    5.1541   -2.5969    0.0000 H   0  0  0  0  0  0  0  0  0  0  0  0
    6.0010   -2.3700    0.0000 H   0  0  0  0  0  0  0  0  0  0  0  0
    5.7741   -1.5231    0.0000 H   0  0  0  0  0  0  0  0  0  0  0  0
    4.5981    2.0600    0.0000 H   0  0  0  0  0  0  0  0  0  0  0  0
    5.1350    1.1300    0.0000 H   0  0  0  0  0  0  0  0  0  0  0  0
  1  8  1  0  0  0  0
  2 11  2  0  0  0  0
  3 11  1  0  0  0  0
  3 18  1  0  0  0  0
  3 19  1  0  0  0  0
  4  6  2  0  0  0  0
  4  7  1  0  0  0  0
  4 10  1  0  0  0  0
  5  6  1  0  0  0  0
  5  8  2  0  0  0  0
  5 11  1  0  0  0  0
  6 12  1  0  0  0  0
  7  9  2  0  0  0  0
  7 13  1  0  0  0  0
  8  9  1  0  0  0  0
  9 14  1  0  0  0  0
 10 15  1  0  0  0  0
 10 16  1  0  0  0  0
 10 17  1  0  0  0  0
M  END
> <PUBCHEM_COMPOUND_CID>
20872048

> <PUBCHEM_COMPOUND_CANONICALIZED>
1

> <PUBCHEM_CACTVS_COMPLEXITY>
160

> <PUBCHEM_CACTVS_HBOND_ACCEPTOR>
1

> <PUBCHEM_CACTVS_HBOND_DONOR>
1

> <PUBCHEM_CACTVS_ROTATABLE_BOND>
1

> <PUBCHEM_CACTVS_SUBSKEYS>
AAADccByIAAEAAAAAAAAAAAAAAAAAAAAAAAwAAAAAAAAAAABAAAAHgIQAAAADAKBmCAyAIBAAACIAiFSEACCAAAkBQAIiAEABsgIIDKBlxGAIQBggAAIjYcYiECOBAACAAABAAAIAAQAAAIAAAAAAAAAAA==

> <PUBCHEM_IUPAC_OPENEYE_NAME>
2-chloro-5-methyl-benzamide

> <PUBCHEM_IUPAC_CAS_NAME>
2-chloro-5-methylbenzamide

> <PUBCHEM_IUPAC_NAME>
2-chloro-5-methylbenzamide

> <PUBCHEM_IUPAC_SYSTEMATIC_NAME>
2-chloranyl-5-methyl-benzamide

> <PUBCHEM_IUPAC_TRADITIONAL_NAME>
2-chloro-5-methyl-benzamide

> <PUBCHEM_IUPAC_INCHI>
InChI=1S/C8H8ClNO/c1-5-2-3-7(9)6(4-5)8(10)11/h2-4H,1H3,(H2,10,11)

> <PUBCHEM_IUPAC_INCHIKEY>
FBLCDIKYQVYXTB-UHFFFAOYSA-N

> <PUBCHEM_XLOGP3>
1

> <PUBCHEM_EXACT_MASS>
169.029442

> <PUBCHEM_MOLECULAR_FORMULA>
C8H8ClNO

> <PUBCHEM_MOLECULAR_WEIGHT>
169.60822

> <PUBCHEM_OPENEYE_CAN_SMILES>
CC1=CC(=C(C=C1)Cl)C(=O)N

> <PUBCHEM_OPENEYE_ISO_SMILES>
CC1=CC(=C(C=C1)Cl)C(=O)N

> <PUBCHEM_CACTVS_TPSA>
43.1

> <PUBCHEM_MONOISOTOPIC_WEIGHT>
169.029442

> <PUBCHEM_TOTAL_CHARGE>
0

> <PUBCHEM_HEAVY_ATOM_COUNT>
11

> <PUBCHEM_ATOM_DEF_STEREO_COUNT>
0

> <PUBCHEM_ATOM_UDEF_STEREO_COUNT>
0

> <PUBCHEM_BOND_DEF_STEREO_COUNT>
0

> <PUBCHEM_BOND_UDEF_STEREO_COUNT>
0

> <PUBCHEM_ISOTOPIC_ATOM_COUNT>
0

> <PUBCHEM_COMPONENT_COUNT>
1

> <PUBCHEM_CACTVS_TAUTO_COUNT>
2

> <PUBCHEM_COORDINATE_TYPE>
1
5
255

> <PUBCHEM_BONDANNOTATIONS>
4  6  8
4  7  8
5  6  8
5  8  8
7  9  8
8  9  8

$$$$
20872407
  -OEChem-12041211022D

 33 35  0     0  0  0  0  0  0999 V2000
    4.0169   -2.1903    0.0000 N   0  0  0  0  0  0  0  0  0  0  0  0
    4.8830    0.3097    0.0000 C   0  0  0  0  0  0  0  0  0  0  0  0
    3.9820    0.7436    0.0000 C   0  0  0  0  0  0  0  0  0  0  0  0
    5.7840    0.7436    0.0000 C   0  0  0  0  0  0  0  0  0  0  0  0
    3.7595    1.7185    0.0000 C   0  0  0  0  0  0  0  0  0  0  0  0
    6.0065    1.7185    0.0000 C   0  0  0  0  0  0  0  0  0  0  0  0
    4.3830    2.5003    0.0000 C   0  0  0  0  0  0  0  0  0  0  0  0
    5.3830    2.5003    0.0000 C   0  0  0  0  0  0  0  0  0  0  0  0
    4.8830   -0.6903    0.0000 C   0  0  0  0  0  0  0  0  0  0  0  0
    3.2295    0.0234    0.0000 C   0  0  0  0  0  0  0  0  0  0  0  0
    6.5365    0.0234    0.0000 C   0  0  0  0  0  0  0  0  0  0  0  0
    2.7690    2.0408    0.0000 C   0  0  0  0  0  0  0  0  0  0  0  0
    6.9970    2.0408    0.0000 C   0  0  0  0  0  0  0  0  0  0  0  0
    2.2318    0.3227    0.0000 C   0  0  0  0  0  0  0  0  0  0  0  0
    7.5342    0.3227    0.0000 C   0  0  0  0  0  0  0  0  0  0  0  0
    4.0170   -1.1903    0.0000 C   0  0  0  0  0  0  0  0  0  0  0  0
    7.7660    1.3382    0.0000 C   0  0  0  0  0  0  0  0  0  0  0  0
    2.0000    1.3383    0.0000 C   0  0  0  0  0  0  0  0  0  0  0  0
    4.1140    3.0589    0.0000 H   0  0  0  0  0  0  0  0  0  0  0  0
    5.6520    3.0589    0.0000 H   0  0  0  0  0  0  0  0  0  0  0  0
    5.4199   -1.0003    0.0000 H   0  0  0  0  0  0  0  0  0  0  0  0
    3.3744   -0.5794    0.0000 H   0  0  0  0  0  0  0  0  0  0  0  0
    6.3916   -0.5794    0.0000 H   0  0  0  0  0  0  0  0  0  0  0  0
    2.6380    2.6468    0.0000 H   0  0  0  0  0  0  0  0  0  0  0  0
    7.1280    2.6468    0.0000 H   0  0  0  0  0  0  0  0  0  0  0  0
    1.7789   -0.1007    0.0000 H   0  0  0  0  0  0  0  0  0  0  0  0
    7.9871   -0.1008    0.0000 H   0  0  0  0  0  0  0  0  0  0  0  0
    3.8049   -0.6077    0.0000 H   0  0  0  0  0  0  0  0  0  0  0  0
    3.4064   -1.2980    0.0000 H   0  0  0  0  0  0  0  0  0  0  0  0
    8.3578    1.5232    0.0000 H   0  0  0  0  0  0  0  0  0  0  0  0
    1.4083    1.5233    0.0000 H   0  0  0  0  0  0  0  0  0  0  0  0
    3.4800   -2.5003    0.0000 H   0  0  0  0  0  0  0  0  0  0  0  0
    4.5539   -2.5003    0.0000 H   0  0  0  0  0  0  0  0  0  0  0  0
  1 16  1  0  0  0  0
  1 32  1  0  0  0  0
  1 33  1  0  0  0  0
  2  3  1  0  0  0  0
  2  4  1  0  0  0  0
  2  9  2  0  0  0  0
  3  5  1  0  0  0  0
  3 10  2  0  0  0  0
  4  6  1  0  0  0  0
  4 11  2  0  0  0  0
  5  7  1  0  0  0  0
  5 12  2  0  0  0  0
  6  8  1  0  0  0  0
  6 13  2  0  0  0  0
  7  8  2  0  0  0  0
  7 19  1  0  0  0  0
  8 20  1  0  0  0  0
  9 16  1  0  0  0  0
  9 21  1  0  0  0  0
 10 14  1  0  0  0  0
 10 22  1  0  0  0  0
 11 15  1  0  0  0  0
 11 23  1  0  0  0  0
 12 18  1  0  0  0  0
 12 24  1  0  0  0  0
 13 17  1  0  0  0  0
 13 25  1  0  0  0  0
 14 18  2  0  0  0  0
 14 26  1  0  0  0  0
 15 17  2  0  0  0  0
 15 27  1  0  0  0  0
 16 28  1  0  0  0  0
 16 29  1  0  0  0  0
 17 30  1  0  0  0  0
 18 31  1  0  0  0  0
M  END
> <PUBCHEM_COMPOUND_CID>
20872407

> <PUBCHEM_COMPOUND_CANONICALIZED>
1

> <PUBCHEM_CACTVS_COMPLEXITY>
314

> <PUBCHEM_CACTVS_HBOND_ACCEPTOR>
1

> <PUBCHEM_CACTVS_HBOND_DONOR>
1

> <PUBCHEM_CACTVS_ROTATABLE_BOND>
1

> <PUBCHEM_CACTVS_SUBSKEYS>
AAADccB6AAAAAAAAAAAAAAAAAAAAAAAAAAAwYAAABAAAAAABQAAAHAAQAAAADADBGAQwAIBAAACAAiBCAACCAAAgAAAIiIAAAIgIICKAERCAIAAgkAAIiAcAgMAOgAAAAAAQAAAAAAAAACAAAAAAAAAAAA==

> <PUBCHEM_IUPAC_OPENEYE_NAME>
2-(dibenzo[1,2-a:1',2'-e][7]annulen-11-ylidene)ethanamine

> <PUBCHEM_IUPAC_CAS_NAME>
2-(11-dibenzo[1,2-a:1',2'-e][7]annulenylidene)ethanamine

> <PUBCHEM_IUPAC_NAME>
2-(dibenzo[1,2-a:1',2'-e][7]annulen-11-ylidene)ethanamine

> <PUBCHEM_IUPAC_SYSTEMATIC_NAME>
2-(dibenzo[1,2-a:1',2'-e][7]annulen-11-ylidene)ethanamine

> <PUBCHEM_IUPAC_TRADITIONAL_NAME>
2-(dibenzo[1,2-a:1',2'-e]cyclohepten-11-ylidene)ethylamine

> <PUBCHEM_IUPAC_INCHI>
InChI=1S/C17H15N/c18-12-11-17-15-7-3-1-5-13(15)9-10-14-6-2-4-8-16(14)17/h1-11H,12,18H2

> <PUBCHEM_IUPAC_INCHIKEY>
MYBKKTRFMYIUMH-UHFFFAOYSA-N

> <PUBCHEM_XLOGP3>
3.6

> <PUBCHEM_EXACT_MASS>
233.120449

> <PUBCHEM_MOLECULAR_FORMULA>
C17H15N

> <PUBCHEM_MOLECULAR_WEIGHT>
233.3077

> <PUBCHEM_OPENEYE_CAN_SMILES>
C1=CC=C2C(=C1)C=CC3=CC=CC=C3C2=CCN

> <PUBCHEM_OPENEYE_ISO_SMILES>
C1=CC=C2C(=C1)C=CC3=CC=CC=C3C2=CCN

> <PUBCHEM_CACTVS_TPSA>
26

> <PUBCHEM_MONOISOTOPIC_WEIGHT>
233.120449

> <PUBCHEM_TOTAL_CHARGE>
0

> <PUBCHEM_HEAVY_ATOM_COUNT>
18

> <PUBCHEM_ATOM_DEF_STEREO_COUNT>
0

> <PUBCHEM_ATOM_UDEF_STEREO_COUNT>
0

> <PUBCHEM_BOND_DEF_STEREO_COUNT>
0

> <PUBCHEM_BOND_UDEF_STEREO_COUNT>
0

> <PUBCHEM_ISOTOPIC_ATOM_COUNT>
0

> <PUBCHEM_COMPONENT_COUNT>
1

> <PUBCHEM_CACTVS_TAUTO_COUNT>
1

> <PUBCHEM_COORDINATE_TYPE>
1
5
255

> <PUBCHEM_BONDANNOTATIONS>
10  14  8
11  15  8
12  18  8
13  17  8
14  18  8
15  17  8
3  10  8
3  5  8
4  11  8
4  6  8
5  12  8
6  13  8

$$$$
20872626
  -OEChem-12041211022D

 20 20  0     0  0  0  0  0  0999 V2000
    3.7320   -2.0950    0.0000 O   0  0  0  0  0  0  0  0  0  0  0  0
    2.8660    0.4050    0.0000 C   0  0  0  0  0  0  0  0  0  0  0  0
    3.7320    0.9050    0.0000 C   0  0  0  0  0  0  0  0  0  0  0  0
    2.8660   -0.5950    0.0000 C   0  0  0  0  0  0  0  0  0  0  0  0
    4.5981    0.4050    0.0000 C   0  0  0  0  0  0  0  0  0  0  0  0
    3.7320   -1.0950    0.0000 C   0  0  0  0  0  0  0  0  0  0  0  0
    2.0000    0.9050    0.0000 C   0  0  0  0  0  0  0  0  0  0  0  0
    4.5981   -0.5950    0.0000 C   0  0  0  0  0  0  0  0  0  0  0  0
    3.7320    1.9050    0.0000 C   0  0  0  0  0  0  0  0  0  0  0  0
    4.5981    2.4050    0.0000 C   0  0  0  0  0  0  0  0  0  0  0  0
    2.3291   -0.9050    0.0000 H   0  0  0  0  0  0  0  0  0  0  0  0
    5.1350    0.7150    0.0000 H   0  0  0  0  0  0  0  0  0  0  0  0
    2.3100    1.4419    0.0000 H   0  0  0  0  0  0  0  0  0  0  0  0
    1.4631    1.2150    0.0000 H   0  0  0  0  0  0  0  0  0  0  0  0
    1.6900    0.3681    0.0000 H   0  0  0  0  0  0  0  0  0  0  0  0
    5.1350   -0.9050    0.0000 H   0  0  0  0  0  0  0  0  0  0  0  0
    3.1951    2.2150    0.0000 H   0  0  0  0  0  0  0  0  0  0  0  0
    4.2690   -2.4050    0.0000 H   0  0  0  0  0  0  0  0  0  0  0  0
    5.1350    2.0950    0.0000 H   0  0  0  0  0  0  0  0  0  0  0  0
    4.5981    3.0250    0.0000 H   0  0  0  0  0  0  0  0  0  0  0  0
  1  6  1  0  0  0  0
  1 18  1  0  0  0  0
  2  3  2  0  0  0  0
  2  4  1  0  0  0  0
  2  7  1  0  0  0  0
  3  5  1  0  0  0  0
  3  9  1  0  0  0  0
  4  6  2  0  0  0  0
  4 11  1  0  0  0  0
  5  8  2  0  0  0  0
  5 12  1  0  0  0  0
  6  8  1  0  0  0  0
  7 13  1  0  0  0  0
  7 14  1  0  0  0  0
  7 15  1  0  0  0  0
  8 16  1  0  0  0  0
  9 10  2  0  0  0  0
  9 17  1  0  0  0  0
 10 19  1  0  0  0  0
 10 20  1  0  0  0  0
M  END
> <PUBCHEM_COMPOUND_CID>
20872626

> <PUBCHEM_COMPOUND_CANONICALIZED>
1

> <PUBCHEM_CACTVS_COMPLEXITY>
120

> <PUBCHEM_CACTVS_HBOND_ACCEPTOR>
1

> <PUBCHEM_CACTVS_HBOND_DONOR>
1

> <PUBCHEM_CACTVS_ROTATABLE_BOND>
1

> <PUBCHEM_CACTVS_SUBSKEYS>
AAADccBwIAAAAAAAAAAAAAAAAAAAAAAAAAAwAAAAAAAAAAABAAAAGgAACAAADASAmAAyBoAAAgCAAiBCAAACAAAgIAAIiAAGCIgIJiKCERKAcAAkwBEImAeAwJAOoAABAAAQAABAAAIAACAAAAAAAAAAAA==

> <PUBCHEM_IUPAC_OPENEYE_NAME>
3-methyl-4-vinyl-phenol

> <PUBCHEM_IUPAC_CAS_NAME>
4-ethenyl-3-methylphenol

> <PUBCHEM_IUPAC_NAME>
4-ethenyl-3-methylphenol

> <PUBCHEM_IUPAC_SYSTEMATIC_NAME>
4-ethenyl-3-methyl-phenol

> <PUBCHEM_IUPAC_TRADITIONAL_NAME>
3-methyl-4-vinyl-phenol

> <PUBCHEM_IUPAC_INCHI>
InChI=1S/C9H10O/c1-3-8-4-5-9(10)6-7(8)2/h3-6,10H,1H2,2H3

> <PUBCHEM_IUPAC_INCHIKEY>
RYRGGXUPGWTAPZ-UHFFFAOYSA-N

> <PUBCHEM_XLOGP3>
2.6

> <PUBCHEM_EXACT_MASS>
134.073165

> <PUBCHEM_MOLECULAR_FORMULA>
C9H10O

> <PUBCHEM_MOLECULAR_WEIGHT>
134.1751

> <PUBCHEM_OPENEYE_CAN_SMILES>
CC1=C(C=CC(=C1)O)C=C

> <PUBCHEM_OPENEYE_ISO_SMILES>
CC1=C(C=CC(=C1)O)C=C

> <PUBCHEM_CACTVS_TPSA>
20.2

> <PUBCHEM_MONOISOTOPIC_WEIGHT>
134.073165

> <PUBCHEM_TOTAL_CHARGE>
0

> <PUBCHEM_HEAVY_ATOM_COUNT>
10

> <PUBCHEM_ATOM_DEF_STEREO_COUNT>
0

> <PUBCHEM_ATOM_UDEF_STEREO_COUNT>
0

> <PUBCHEM_BOND_DEF_STEREO_COUNT>
0

> <PUBCHEM_BOND_UDEF_STEREO_COUNT>
0

> <PUBCHEM_ISOTOPIC_ATOM_COUNT>
0

> <PUBCHEM_COMPONENT_COUNT>
1

> <PUBCHEM_CACTVS_TAUTO_COUNT>
12

> <PUBCHEM_COORDINATE_TYPE>
1
5
255

> <PUBCHEM_BONDANNOTATIONS>
2  3  8
2  4  8
3  5  8
4  6  8
5  8  8
6  8  8

$$$$
