9652031
  -OEChem-11301217072D

 39 41  0     1  0  0  0  0  0999 V2000
    7.0427    1.3559    0.0000 O   0  0  0  0  0  0  0  0  0  0  0  0
    7.7022   -4.1659    0.0000 O   0  5  0  0  0  0  0  0  0  0  0  0
    6.0612   -3.6117    0.0000 O   0  0  0  0  0  0  0  0  0  0  0  0
   10.3534   -1.7972    0.0000 O   0  5  0  0  0  0  0  0  0  0  0  0
    9.9867   -0.1044    0.0000 O   0  0  0  0  0  0  0  0  0  0  0  0
    2.0000   -1.7972    0.0000 O   0  5  0  0  0  0  0  0  0  0  0  0
    2.3666   -0.1044    0.0000 O   0  0  0  0  0  0  0  0  0  0  0  0
    7.9087    3.8559    0.0000 O   0  0  0  0  0  0  0  0  0  0  0  0
    8.7748    2.3559    0.0000 O   0  0  0  0  0  0  0  0  0  0  0  0
    6.1767    0.8559    0.0000 N   0  0  0  0  0  0  0  0  0  0  0  0
    7.0417   -3.4151    0.0000 N   0  3  0  0  0  0  0  0  0  0  0  0
    9.6814   -1.0566    0.0000 N   0  3  0  0  0  0  0  0  0  0  0  0
    2.6720   -1.0566    0.0000 N   0  3  0  0  0  0  0  0  0  0  0  0
    6.6767   -1.6829    0.0000 C   0  0  0  0  0  0  0  0  0  0  0  0
    5.6767   -1.6829    0.0000 C   0  0  0  0  0  0  0  0  0  0  0  0
    6.9857   -0.7319    0.0000 C   0  0  0  0  0  0  0  0  0  0  0  0
    5.3677   -0.7319    0.0000 C   0  0  0  0  0  0  0  0  0  0  0  0
    6.1767   -0.1441    0.0000 C   0  0  0  0  0  0  0  0  0  0  0  0
    7.3617   -2.4677    0.0000 C   0  0  0  0  0  0  0  0  0  0  0  0
    8.0011   -0.4996    0.0000 C   0  0  0  0  0  0  0  0  0  0  0  0
    4.9917   -2.4677    0.0000 C   0  0  0  0  0  0  0  0  0  0  0  0
    4.3523   -0.4996    0.0000 C   0  0  0  0  0  0  0  0  0  0  0  0
    8.7040   -1.2683    0.0000 C   0  0  0  0  0  0  0  0  0  0  0  0
    8.3822   -2.2590    0.0000 C   0  0  0  0  0  0  0  0  0  0  0  0
    3.6493   -1.2683    0.0000 C   0  0  0  0  0  0  0  0  0  0  0  0
    3.9712   -2.2590    0.0000 C   0  0  0  0  0  0  0  0  0  0  0  0
    7.0427    2.3559    0.0000 C   0  0  3  0  0  0  0  0  0  0  0  0
    6.1767    2.8559    0.0000 C   0  0  0  0  0  0  0  0  0  0  0  0
    7.9087    2.8559    0.0000 C   0  0  0  0  0  0  0  0  0  0  0  0
    8.1859    0.0922    0.0000 H   0  0  0  0  0  0  0  0  0  0  0  0
    5.1901   -3.0551    0.0000 H   0  0  0  0  0  0  0  0  0  0  0  0
    4.1675    0.0922    0.0000 H   0  0  0  0  0  0  0  0  0  0  0  0
    8.7952   -2.7213    0.0000 H   0  0  0  0  0  0  0  0  0  0  0  0
    3.5581   -2.7213    0.0000 H   0  0  0  0  0  0  0  0  0  0  0  0
    6.3066    1.9309    0.0000 H   0  0  0  0  0  0  0  0  0  0  0  0
    6.4867    3.3928    0.0000 H   0  0  0  0  0  0  0  0  0  0  0  0
    5.6398    3.1659    0.0000 H   0  0  0  0  0  0  0  0  0  0  0  0
    5.8667    2.3190    0.0000 H   0  0  0  0  0  0  0  0  0  0  0  0
    8.4457    4.1659    0.0000 H   0  0  0  0  0  0  0  0  0  0  0  0
  1 10  1  0  0  0  0
  1 27  1  0  0  0  0
  2 11  1  0  0  0  0
  3 11  2  0  0  0  0
  4 12  1  0  0  0  0
  5 12  2  0  0  0  0
  6 13  1  0  0  0  0
  7 13  2  0  0  0  0
  8 29  1  0  0  0  0
  8 39  1  0  0  0  0
  9 29  2  0  0  0  0
 10 18  2  0  0  0  0
 11 19  1  0  0  0  0
 12 23  1  0  0  0  0
 13 25  1  0  0  0  0
 14 15  1  0  0  0  0
 14 16  1  0  0  0  0
 14 19  2  0  0  0  0
 15 17  2  0  0  0  0
 15 21  1  0  0  0  0
 16 18  1  0  0  0  0
 16 20  2  0  0  0  0
 17 18  1  0  0  0  0
 17 22  1  0  0  0  0
 19 24  1  0  0  0  0
 20 23  1  0  0  0  0
 20 30  1  0  0  0  0
 21 26  2  0  0  0  0
 21 31  1  0  0  0  0
 22 25  2  0  0  0  0
 22 32  1  0  0  0  0
 23 24  2  0  0  0  0
 24 33  1  0  0  0  0
 25 26  1  0  0  0  0
 26 34  1  0  0  0  0
 27 28  1  0  0  0  0
 27 29  1  0  0  0  0
 27 35  1  0  0  0  0
 28 36  1  0  0  0  0
 28 37  1  0  0  0  0
 28 38  1  0  0  0  0
M  CHG  6   2  -1   4  -1   6  -1  11   1  12   1  13   1
M  END
> <PUBCHEM_COMPOUND_CID>
9652031

> <PUBCHEM_COMPOUND_CANONICALIZED>
1

> <PUBCHEM_CACTVS_COMPLEXITY>
740

> <PUBCHEM_CACTVS_HBOND_ACCEPTOR>
10

> <PUBCHEM_CACTVS_HBOND_DONOR>
1

> <PUBCHEM_CACTVS_ROTATABLE_BOND>
3

> <PUBCHEM_CACTVS_SUBSKEYS>
AAADccB7vAAAAAAAAAAAAAAAAAAAAYAAAAAwYAAAAAAAAGABQAAAHgAECAAADByhmAIyyIAQQgCpAyTySwKCAAAgAgAoiAFgZJoJIKKA0dGAYABggAAJyAcQgMAOiAAAQAQSAAAQAACACCQAAQAACAAAAA==

> <PUBCHEM_IUPAC_OPENEYE_NAME>
2-[(Z)-(2,4,7-trinitrofluoren-9-ylidene)amino]oxypropanoic acid

> <PUBCHEM_IUPAC_CAS_NAME>
2-[(Z)-(2,4,7-trinitro-9-fluorenylidene)amino]oxypropanoic acid

> <PUBCHEM_IUPAC_NAME>
2-[(Z)-(2,4,7-trinitrofluoren-9-ylidene)amino]oxypropanoic acid

> <PUBCHEM_IUPAC_SYSTEMATIC_NAME>
2-[(Z)-(2,4,7-trinitrofluoren-9-ylidene)amino]oxypropanoic acid

> <PUBCHEM_IUPAC_TRADITIONAL_NAME>
2-[(Z)-(2,4,7-trinitrofluoren-9-ylidene)amino]oxypropionic acid

> <PUBCHEM_IUPAC_INCHI>
InChI=1S/C16H10N4O9/c1-7(16(21)22)29-17-15-11-4-8(18(23)24)2-3-10(11)14-12(15)5-9(19(25)26)6-13(14)20(27)28/h2-7H,1H3,(H,21,22)/b17-15-

> <PUBCHEM_IUPAC_INCHIKEY>
QVUKDFLCLHHSTK-ICFOKQHNSA-N

> <PUBCHEM_XLOGP3>
3

> <PUBCHEM_EXACT_MASS>
402.044778

> <PUBCHEM_MOLECULAR_FORMULA>
C16H10N4O9

> <PUBCHEM_MOLECULAR_WEIGHT>
402.272

> <PUBCHEM_OPENEYE_CAN_SMILES>
CC(C(=O)O)ON=C1C2=CC(=CC(=C2C3=C1C=C(C=C3)[N+](=O)[O-])[N+](=O)[O-])[N+](=O)[O-]

> <PUBCHEM_OPENEYE_ISO_SMILES>
CC(C(=O)O)O/N=C/1\C2=CC(=CC(=C2C3=C1C=C(C=C3)[N+](=O)[O-])[N+](=O)[O-])[N+](=O)[O-]

> <PUBCHEM_CACTVS_TPSA>
196

> <PUBCHEM_MONOISOTOPIC_WEIGHT>
402.044778

> <PUBCHEM_TOTAL_CHARGE>
0

> <PUBCHEM_HEAVY_ATOM_COUNT>
29

> <PUBCHEM_ATOM_DEF_STEREO_COUNT>
0

> <PUBCHEM_ATOM_UDEF_STEREO_COUNT>
1

> <PUBCHEM_BOND_DEF_STEREO_COUNT>
1

> <PUBCHEM_BOND_UDEF_STEREO_COUNT>
0

> <PUBCHEM_ISOTOPIC_ATOM_COUNT>
0

> <PUBCHEM_COMPONENT_COUNT>
1

> <PUBCHEM_CACTVS_TAUTO_COUNT>
1

> <PUBCHEM_COORDINATE_TYPE>
1
5
255

> <PUBCHEM_BONDANNOTATIONS>
14  16  8
14  19  8
15  17  8
15  21  8
16  20  8
17  22  8
19  24  8
20  23  8
21  26  8
22  25  8
23  24  8
25  26  8
27  35  3

$$$$
9653064
  -OEChem-11301217072D

 46 47  0     0  0  0  0  0  0999 V2000
    7.1962    3.7500    0.0000 O   0  0  0  0  0  0  0  0  0  0  0  0
    8.9282    0.7500    0.0000 O   0  0  0  0  0  0  0  0  0  0  0  0
    2.0000   -2.2500    0.0000 O   0  5  0  0  0  0  0  0  0  0  0  0
    2.8660   -0.7500    0.0000 O   0  0  0  0  0  0  0  0  0  0  0  0
    5.4641   -5.2500    0.0000 O   0  5  0  0  0  0  0  0  0  0  0  0
    3.7320   -5.2500    0.0000 O   0  0  0  0  0  0  0  0  0  0  0  0
    8.9282    3.7500    0.0000 O   0  0  0  0  0  0  0  0  0  0  0  0
    9.7942    2.2500    0.0000 O   0  0  0  0  0  0  0  0  0  0  0  0
    4.5981   -0.7500    0.0000 N   0  0  0  0  0  0  0  0  0  0  0  0
    5.4641   -0.2500    0.0000 N   0  0  0  0  0  0  0  0  0  0  0  0
    2.8660   -1.7500    0.0000 N   0  3  0  0  0  0  0  0  0  0  0  0
    4.5981   -4.7500    0.0000 N   0  3  0  0  0  0  0  0  0  0  0  0
    6.3301    1.2500    0.0000 C   0  0  0  0  0  0  0  0  0  0  0  0
    5.4641    0.7500    0.0000 C   0  0  0  0  0  0  0  0  0  0  0  0
    7.1962    0.7500    0.0000 C   0  0  0  0  0  0  0  0  0  0  0  0
    6.3301    2.2500    0.0000 C   0  0  0  0  0  0  0  0  0  0  0  0
    4.5981   -1.7500    0.0000 C   0  0  0  0  0  0  0  0  0  0  0  0
    7.1962    2.7500    0.0000 C   0  0  0  0  0  0  0  0  0  0  0  0
    8.0622    1.2500    0.0000 C   0  0  0  0  0  0  0  0  0  0  0  0
    3.7320   -2.2500    0.0000 C   0  0  0  0  0  0  0  0  0  0  0  0
    8.0622    2.2500    0.0000 C   0  0  0  0  0  0  0  0  0  0  0  0
    5.4641   -2.2500    0.0000 C   0  0  0  0  0  0  0  0  0  0  0  0
    4.5981    1.2500    0.0000 C   0  0  0  0  0  0  0  0  0  0  0  0
    3.7320   -3.2500    0.0000 C   0  0  0  0  0  0  0  0  0  0  0  0
    4.5981   -3.7500    0.0000 C   0  0  0  0  0  0  0  0  0  0  0  0
    5.4641   -3.2500    0.0000 C   0  0  0  0  0  0  0  0  0  0  0  0
    8.0622    4.2500    0.0000 C   0  0  0  0  0  0  0  0  0  0  0  0
    9.7942    1.2500    0.0000 C   0  0  0  0  0  0  0  0  0  0  0  0
    8.0622    5.2500    0.0000 C   0  0  0  0  0  0  0  0  0  0  0  0
   10.6603    0.7500    0.0000 C   0  0  0  0  0  0  0  0  0  0  0  0
    7.1962    0.1300    0.0000 H   0  0  0  0  0  0  0  0  0  0  0  0
    5.7932    2.5600    0.0000 H   0  0  0  0  0  0  0  0  0  0  0  0
    8.5991    2.5600    0.0000 H   0  0  0  0  0  0  0  0  0  0  0  0
    6.0010   -1.9400    0.0000 H   0  0  0  0  0  0  0  0  0  0  0  0
    4.0611   -0.4400    0.0000 H   0  0  0  0  0  0  0  0  0  0  0  0
    3.1951   -3.5600    0.0000 H   0  0  0  0  0  0  0  0  0  0  0  0
    4.9081    1.7869    0.0000 H   0  0  0  0  0  0  0  0  0  0  0  0
    4.0611    1.5600    0.0000 H   0  0  0  0  0  0  0  0  0  0  0  0
    4.2881    0.7131    0.0000 H   0  0  0  0  0  0  0  0  0  0  0  0
    6.0010   -3.5600    0.0000 H   0  0  0  0  0  0  0  0  0  0  0  0
    8.6822    5.2500    0.0000 H   0  0  0  0  0  0  0  0  0  0  0  0
    8.0622    5.8700    0.0000 H   0  0  0  0  0  0  0  0  0  0  0  0
    7.4422    5.2500    0.0000 H   0  0  0  0  0  0  0  0  0  0  0  0
   10.3503    0.2131    0.0000 H   0  0  0  0  0  0  0  0  0  0  0  0
   11.1972    0.4400    0.0000 H   0  0  0  0  0  0  0  0  0  0  0  0
   10.9703    1.2869    0.0000 H   0  0  0  0  0  0  0  0  0  0  0  0
  1 18  1  0  0  0  0
  1 27  1  0  0  0  0
  2 19  1  0  0  0  0
  2 28  1  0  0  0  0
  3 11  1  0  0  0  0
  4 11  2  0  0  0  0
  5 12  1  0  0  0  0
  6 12  2  0  0  0  0
  7 27  2  0  0  0  0
  8 28  2  0  0  0  0
  9 10  1  0  0  0  0
  9 17  1  0  0  0  0
  9 35  1  0  0  0  0
 10 14  2  0  0  0  0
 11 20  1  0  0  0  0
 12 25  1  0  0  0  0
 13 14  1  0  0  0  0
 13 15  2  0  0  0  0
 13 16  1  0  0  0  0
 14 23  1  0  0  0  0
 15 19  1  0  0  0  0
 15 31  1  0  0  0  0
 16 18  2  0  0  0  0
 16 32  1  0  0  0  0
 17 20  2  0  0  0  0
 17 22  1  0  0  0  0
 18 21  1  0  0  0  0
 19 21  2  0  0  0  0
 20 24  1  0  0  0  0
 21 33  1  0  0  0  0
 22 26  2  0  0  0  0
 22 34  1  0  0  0  0
 23 37  1  0  0  0  0
 23 38  1  0  0  0  0
 23 39  1  0  0  0  0
 24 25  2  0  0  0  0
 24 36  1  0  0  0  0
 25 26  1  0  0  0  0
 26 40  1  0  0  0  0
 27 29  1  0  0  0  0
 28 30  1  0  0  0  0
 29 41  1  0  0  0  0
 29 42  1  0  0  0  0
 29 43  1  0  0  0  0
 30 44  1  0  0  0  0
 30 45  1  0  0  0  0
 30 46  1  0  0  0  0
M  CHG  4   3  -1   5  -1  11   1  12   1
M  END
> <PUBCHEM_COMPOUND_CID>
9653064

> <PUBCHEM_COMPOUND_CANONICALIZED>
1

> <PUBCHEM_CACTVS_COMPLEXITY>
677

> <PUBCHEM_CACTVS_HBOND_ACCEPTOR>
10

> <PUBCHEM_CACTVS_HBOND_DONOR>
1

> <PUBCHEM_CACTVS_ROTATABLE_BOND>
7

> <PUBCHEM_CACTVS_SUBSKEYS>
AAADceB7vAAAAAAAAAAAAAAAAAAAAAAAAAAwYAAAAAAAAAABQAAAHgAcAAAADAyBmAAyzoByRACpAyTySwCSDAAgIgA4iAA2fJoMZ6KE8duCOiDl2JUI6AeQ4LwOAACBCAQAACAAAQIQCAAAQAAAAAAAAA==

> <PUBCHEM_IUPAC_OPENEYE_NAME>
[3-acetoxy-5-[(E)-N-(2,4-dinitroanilino)-C-methyl-carbonimidoyl]phenyl] acetate

> <PUBCHEM_IUPAC_CAS_NAME>
acetic acid [3-acetyloxy-5-[(1E)-1-[(2,4-dinitrophenyl)hydrazinylidene]ethyl]phenyl] ester

> <PUBCHEM_IUPAC_NAME>
[3-acetyloxy-5-[(E)-N-(2,4-dinitroanilino)-C-methylcarbonimidoyl]phenyl] acetate

> <PUBCHEM_IUPAC_SYSTEMATIC_NAME>
[3-acetyloxy-5-[(E)-N-[(2,4-dinitrophenyl)amino]-C-methyl-carbonimidoyl]phenyl] ethanoate

> <PUBCHEM_IUPAC_TRADITIONAL_NAME>
acetic acid [3-acetoxy-5-[(E)-N-(2,4-dinitroanilino)-C-methyl-carbonimidoyl]phenyl] ester

> <PUBCHEM_IUPAC_INCHI>
InChI=1S/C18H16N4O8/c1-10(13-6-15(29-11(2)23)9-16(7-13)30-12(3)24)19-20-17-5-4-14(21(25)26)8-18(17)22(27)28/h4-9,20H,1-3H3/b19-10+

> <PUBCHEM_IUPAC_INCHIKEY>
RWQCFOQKSUDIAQ-VXLYETTFSA-N

> <PUBCHEM_XLOGP3>
4.2

> <PUBCHEM_EXACT_MASS>
416.096813

> <PUBCHEM_MOLECULAR_FORMULA>
C18H16N4O8

> <PUBCHEM_MOLECULAR_WEIGHT>
416.34164

> <PUBCHEM_OPENEYE_CAN_SMILES>
CC(=NNC1=C(C=C(C=C1)[N+](=O)[O-])[N+](=O)[O-])C2=CC(=CC(=C2)OC(=O)C)OC(=O)C

> <PUBCHEM_OPENEYE_ISO_SMILES>
C/C(=N\NC1=C(C=C(C=C1)[N+](=O)[O-])[N+](=O)[O-])/C2=CC(=CC(=C2)OC(=O)C)OC(=O)C

> <PUBCHEM_CACTVS_TPSA>
169

> <PUBCHEM_MONOISOTOPIC_WEIGHT>
416.096813

> <PUBCHEM_TOTAL_CHARGE>
0

> <PUBCHEM_HEAVY_ATOM_COUNT>
30

> <PUBCHEM_ATOM_DEF_STEREO_COUNT>
0

> <PUBCHEM_ATOM_UDEF_STEREO_COUNT>
0

> <PUBCHEM_BOND_DEF_STEREO_COUNT>
1

> <PUBCHEM_BOND_UDEF_STEREO_COUNT>
0

> <PUBCHEM_ISOTOPIC_ATOM_COUNT>
0

> <PUBCHEM_COMPONENT_COUNT>
1

> <PUBCHEM_CACTVS_TAUTO_COUNT>
1

> <PUBCHEM_COORDINATE_TYPE>
1
5
255

> <PUBCHEM_BONDANNOTATIONS>
13  15  8
13  16  8
15  19  8
16  18  8
17  20  8
17  22  8
18  21  8
19  21  8
20  24  8
22  26  8
24  25  8
25  26  8

$$$$
9670406
  -OEChem-11301217082D

 34 35  0     1  0  0  0  0  0999 V2000
    5.9674    0.5823    0.0000 O   0  0  0  0  0  0  0  0  0  0  0  0
    5.9209    3.2277    0.0000 O   0  0  0  0  0  0  0  0  0  0  0  0
    3.9639    2.8152    0.0000 O   0  0  0  0  0  0  0  0  0  0  0  0
    8.5458    2.8958    0.0000 O   0  0  0  0  0  0  0  0  0  0  0  0
    4.6783   -0.5744    0.0000 N   0  0  0  0  0  0  0  0  0  0  0  0
    4.6783   -2.1839    0.0000 N   0  0  0  0  0  0  0  0  0  0  0  0
    2.8660   -0.3791    0.0000 N   0  0  0  0  0  0  0  0  0  0  0  0
    2.0000   -1.8791    0.0000 N   0  0  0  0  0  0  0  0  0  0  0  0
    2.8660   -3.3791    0.0000 N   0  0  0  0  0  0  0  0  0  0  0  0
    4.6318    2.0709    0.0000 N   0  0  0  0  0  0  0  0  0  0  0  0
    7.5673    2.6896    0.0000 N   0  0  0  0  0  0  0  0  0  0  0  0
    4.9889    0.3761    0.0000 C   0  0  3  0  0  0  0  0  0  0  0  0
    3.7320   -0.8791    0.0000 C   0  0  0  0  0  0  0  0  0  0  0  0
    6.2781    1.5328    0.0000 C   0  0  3  0  0  0  0  0  0  0  0  0
    3.7320   -1.8791    0.0000 C   0  0  0  0  0  0  0  0  0  0  0  0
    5.2619   -1.3791    0.0000 C   0  0  0  0  0  0  0  0  0  0  0  0
    4.3211    1.1204    0.0000 C   0  0  0  0  0  0  0  0  0  0  0  0
    5.6103    2.2771    0.0000 C   0  0  0  0  0  0  0  0  0  0  0  0
    2.8660   -2.3791    0.0000 C   0  0  0  0  0  0  0  0  0  0  0  0
    7.2566    1.7391    0.0000 C   0  0  0  0  0  0  0  0  0  0  0  0
    2.0000   -0.8791    0.0000 C   0  0  0  0  0  0  0  0  0  0  0  0
    5.2530    1.1840    0.0000 H   0  0  0  0  0  0  0  0  0  0  0  0
    5.4464    1.3576    0.0000 H   0  0  0  0  0  0  0  0  0  0  0  0
    5.8819   -1.3791    0.0000 H   0  0  0  0  0  0  0  0  0  0  0  0
    3.7144    0.9926    0.0000 H   0  0  0  0  0  0  0  0  0  0  0  0
    5.0633    2.5692    0.0000 H   0  0  0  0  0  0  0  0  0  0  0  0
    5.2277    1.7892    0.0000 H   0  0  0  0  0  0  0  0  0  0  0  0
    7.6707    1.2776    0.0000 H   0  0  0  0  0  0  0  0  0  0  0  0
    1.4631   -0.5691    0.0000 H   0  0  0  0  0  0  0  0  0  0  0  0
    2.3291   -3.6891    0.0000 H   0  0  0  0  0  0  0  0  0  0  0  0
    3.4030   -3.6891    0.0000 H   0  0  0  0  0  0  0  0  0  0  0  0
    5.5069    3.6891    0.0000 H   0  0  0  0  0  0  0  0  0  0  0  0
    4.1565    3.4046    0.0000 H   0  0  0  0  0  0  0  0  0  0  0  0
    8.7384    3.4851    0.0000 H   0  0  0  0  0  0  0  0  0  0  0  0
  1 12  1  0  0  0  0
  1 14  1  0  0  0  0
  2 18  1  0  0  0  0
  2 32  1  0  0  0  0
  3 10  1  0  0  0  0
  3 33  1  0  0  0  0
  4 11  1  0  0  0  0
  4 34  1  0  0  0  0
  5 12  1  0  0  0  0
  5 13  1  0  0  0  0
  5 16  1  0  0  0  0
  6 15  1  0  0  0  0
  6 16  2  0  0  0  0
  7 13  1  0  0  0  0
  7 21  2  0  0  0  0
  8 19  2  0  0  0  0
  8 21  1  0  0  0  0
  9 19  1  0  0  0  0
  9 30  1  0  0  0  0
  9 31  1  0  0  0  0
 10 17  2  0  0  0  0
 11 20  2  0  0  0  0
 12 17  1  0  0  0  0
 12 22  1  0  0  0  0
 13 15  2  0  0  0  0
 14 18  1  0  0  0  0
 14 20  1  0  0  0  0
 14 23  1  0  0  0  0
 15 19  1  0  0  0  0
 16 24  1  0  0  0  0
 17 25  1  0  0  0  0
 18 26  1  0  0  0  0
 18 27  1  0  0  0  0
 20 28  1  0  0  0  0
 21 29  1  0  0  0  0
M  END
> <PUBCHEM_COMPOUND_CID>
9670406

> <PUBCHEM_COMPOUND_CANONICALIZED>
1

> <PUBCHEM_CACTVS_COMPLEXITY>
382

> <PUBCHEM_CACTVS_HBOND_ACCEPTOR>
10

> <PUBCHEM_CACTVS_HBOND_DONOR>
4

> <PUBCHEM_CACTVS_ROTATABLE_BOND>
6

> <PUBCHEM_CACTVS_SUBSKEYS>
AAADccBzuAAAAAAAAAAAAAAAAAAAAWAAAAAsAAAAAAAAAFgB+AAAHgAUCAAACBzhlwYF8L9cFgCgARZhZASAgC0REKABUCA4VBCBWABASEAeRAgIAALDACAAAAAAAAAAAAAAAAAAAAAAAAAAAAAAAAAAAA==

> <PUBCHEM_IUPAC_OPENEYE_NAME>
(1E)-2-[(2E)-1-(6-aminopurin-9-yl)-2-hydroxyimino-ethoxy]-3-hydroxy-propanal oxime

> <PUBCHEM_IUPAC_CAS_NAME>
(1E)-2-[(2E)-1-(6-aminopurin-9-yl)-2-hydroxyiminoethoxy]-3-hydroxypropanal oxime

> <PUBCHEM_IUPAC_NAME>
(3E)-2-[(2E)-1-(6-aminopurin-9-yl)-2-hydroxyiminoethoxy]-3-hydroxyiminopropan-1-ol

> <PUBCHEM_IUPAC_SYSTEMATIC_NAME>
(3E)-2-[(2E)-1-(6-aminopurin-9-yl)-2-hydroxyimino-ethoxy]-3-hydroxyimino-propan-1-ol

> <PUBCHEM_IUPAC_TRADITIONAL_NAME>
(1E)-2-[(2E)-1-adenin-9-yl-2-hydroximino-ethoxy]-3-hydroxy-propionaldoxime

> <PUBCHEM_IUPAC_INCHI>
InChI=1S/C10H13N7O4/c11-9-8-10(13-4-12-9)17(5-14-8)7(2-16-20)21-6(3-18)1-15-19/h1-2,4-7,18-20H,3H2,(H2,11,12,13)/b15-1+,16-2+

> <PUBCHEM_IUPAC_INCHIKEY>
PHDTVFBXWFUGOU-VEQRDEFOSA-N

> <PUBCHEM_XLOGP3>
-1.1

> <PUBCHEM_EXACT_MASS>
295.102902

> <PUBCHEM_MOLECULAR_FORMULA>
C10H13N7O4

> <PUBCHEM_MOLECULAR_WEIGHT>
295.25472

> <PUBCHEM_OPENEYE_CAN_SMILES>
C1=NC2=C(C(=N1)N)N=CN2C(C=NO)OC(CO)C=NO

> <PUBCHEM_OPENEYE_ISO_SMILES>
C1=NC2=C(C(=N1)N)N=CN2C(/C=N/O)OC(CO)/C=N/O

> <PUBCHEM_CACTVS_TPSA>
164

> <PUBCHEM_MONOISOTOPIC_WEIGHT>
295.102902

> <PUBCHEM_TOTAL_CHARGE>
0

> <PUBCHEM_HEAVY_ATOM_COUNT>
21

> <PUBCHEM_ATOM_DEF_STEREO_COUNT>
0

> <PUBCHEM_ATOM_UDEF_STEREO_COUNT>
2

> <PUBCHEM_BOND_DEF_STEREO_COUNT>
2

> <PUBCHEM_BOND_UDEF_STEREO_COUNT>
0

> <PUBCHEM_ISOTOPIC_ATOM_COUNT>
0

> <PUBCHEM_COMPONENT_COUNT>
1

> <PUBCHEM_CACTVS_TAUTO_COUNT>
27

> <PUBCHEM_COORDINATE_TYPE>
1
5
255

> <PUBCHEM_BONDANNOTATIONS>
12  22  3
13  15  8
14  23  3
15  19  8
5  13  8
5  16  8
6  15  8
6  16  8
7  13  8
7  21  8
8  19  8
8  21  8

$$$$
