28637911
  -OEChem-11301217412D

 46 47  0     0  0  0  0  0  0999 V2000
    9.7942   -0.9400    0.0000 S   0  0  0  0  0  0  0  0  0  0  0  0
    9.2942   -1.8060    0.0000 O   0  0  0  0  0  0  0  0  0  0  0  0
   10.2942   -0.0740    0.0000 O   0  0  0  0  0  0  0  0  0  0  0  0
   12.3923    1.5600    0.0000 O   0  0  0  0  0  0  0  0  0  0  0  0
   14.1244   -1.4400    0.0000 O   0  0  0  0  0  0  0  0  0  0  0  0
    5.4641   -0.4400    0.0000 O   0  0  0  0  0  0  0  0  0  0  0  0
    2.8660    1.0600    0.0000 O   0  0  0  0  0  0  0  0  0  0  0  0
    3.7320   -0.4400    0.0000 O   0  0  0  0  0  0  0  0  0  0  0  0
   10.6603   -1.4400    0.0000 N   0  0  0  0  0  0  0  0  0  0  0  0
    6.3301    1.0600    0.0000 N   0  0  0  0  0  0  0  0  0  0  0  0
   12.3923   -1.4400    0.0000 N   0  0  0  0  0  0  0  0  0  0  0  0
   13.2583    0.0600    0.0000 N   0  0  0  0  0  0  0  0  0  0  0  0
    8.9282   -0.4400    0.0000 C   0  0  0  0  0  0  0  0  0  0  0  0
    8.9282    0.5600    0.0000 C   0  0  0  0  0  0  0  0  0  0  0  0
    8.0622   -0.9400    0.0000 C   0  0  0  0  0  0  0  0  0  0  0  0
    7.1962    0.5600    0.0000 C   0  0  0  0  0  0  0  0  0  0  0  0
    8.0622    1.0600    0.0000 C   0  0  0  0  0  0  0  0  0  0  0  0
    7.1962   -0.4400    0.0000 C   0  0  0  0  0  0  0  0  0  0  0  0
   11.5263   -0.9400    0.0000 C   0  0  0  0  0  0  0  0  0  0  0  0
   11.5263    0.0600    0.0000 C   0  0  0  0  0  0  0  0  0  0  0  0
    5.4641    0.5600    0.0000 C   0  0  0  0  0  0  0  0  0  0  0  0
    4.5981    1.0600    0.0000 C   0  0  0  0  0  0  0  0  0  0  0  0
   12.3923    0.5600    0.0000 C   0  0  0  0  0  0  0  0  0  0  0  0
   13.2583   -0.9400    0.0000 C   0  0  0  0  0  0  0  0  0  0  0  0
    3.7320    0.5600    0.0000 C   0  0  0  0  0  0  0  0  0  0  0  0
   13.2583    2.0600    0.0000 C   0  0  0  0  0  0  0  0  0  0  0  0
   14.9904   -0.9400    0.0000 C   0  0  0  0  0  0  0  0  0  0  0  0
    2.0000    0.5600    0.0000 C   0  0  0  0  0  0  0  0  0  0  0  0
    9.4651    0.8700    0.0000 H   0  0  0  0  0  0  0  0  0  0  0  0
    8.0622   -1.5600    0.0000 H   0  0  0  0  0  0  0  0  0  0  0  0
   10.6603   -2.0600    0.0000 H   0  0  0  0  0  0  0  0  0  0  0  0
    8.0622    1.6800    0.0000 H   0  0  0  0  0  0  0  0  0  0  0  0
    6.6592   -0.7500    0.0000 H   0  0  0  0  0  0  0  0  0  0  0  0
    6.3301    1.6800    0.0000 H   0  0  0  0  0  0  0  0  0  0  0  0
   10.9893    0.3700    0.0000 H   0  0  0  0  0  0  0  0  0  0  0  0
    4.9966    1.5350    0.0000 H   0  0  0  0  0  0  0  0  0  0  0  0
    4.1996    1.5350    0.0000 H   0  0  0  0  0  0  0  0  0  0  0  0
   13.5683    1.5231    0.0000 H   0  0  0  0  0  0  0  0  0  0  0  0
   13.7953    2.3700    0.0000 H   0  0  0  0  0  0  0  0  0  0  0  0
   12.9483    2.5969    0.0000 H   0  0  0  0  0  0  0  0  0  0  0  0
   15.3004   -1.4769    0.0000 H   0  0  0  0  0  0  0  0  0  0  0  0
   15.5273   -0.6300    0.0000 H   0  0  0  0  0  0  0  0  0  0  0  0
   14.6804   -0.4031    0.0000 H   0  0  0  0  0  0  0  0  0  0  0  0
    1.6900    1.0969    0.0000 H   0  0  0  0  0  0  0  0  0  0  0  0
    1.4631    0.2500    0.0000 H   0  0  0  0  0  0  0  0  0  0  0  0
    2.3100    0.0231    0.0000 H   0  0  0  0  0  0  0  0  0  0  0  0
  1  2  2  0  0  0  0
  1  3  2  0  0  0  0
  1  9  1  0  0  0  0
  1 13  1  0  0  0  0
  4 23  1  0  0  0  0
  4 26  1  0  0  0  0
  5 24  1  0  0  0  0
  5 27  1  0  0  0  0
  6 21  2  0  0  0  0
  7 25  1  0  0  0  0
  7 28  1  0  0  0  0
  8 25  2  0  0  0  0
  9 19  1  0  0  0  0
  9 31  1  0  0  0  0
 10 16  1  0  0  0  0
 10 21  1  0  0  0  0
 10 34  1  0  0  0  0
 11 19  1  0  0  0  0
 11 24  2  0  0  0  0
 12 23  2  0  0  0  0
 12 24  1  0  0  0  0
 13 14  2  0  0  0  0
 13 15  1  0  0  0  0
 14 17  1  0  0  0  0
 14 29  1  0  0  0  0
 15 18  2  0  0  0  0
 15 30  1  0  0  0  0
 16 17  2  0  0  0  0
 16 18  1  0  0  0  0
 17 32  1  0  0  0  0
 18 33  1  0  0  0  0
 19 20  2  0  0  0  0
 20 23  1  0  0  0  0
 20 35  1  0  0  0  0
 21 22  1  0  0  0  0
 22 25  1  0  0  0  0
 22 36  1  0  0  0  0
 22 37  1  0  0  0  0
 26 38  1  0  0  0  0
 26 39  1  0  0  0  0
 26 40  1  0  0  0  0
 27 41  1  0  0  0  0
 27 42  1  0  0  0  0
 27 43  1  0  0  0  0
 28 44  1  0  0  0  0
 28 45  1  0  0  0  0
 28 46  1  0  0  0  0
M  END
> <PUBCHEM_COMPOUND_CID>
28637911

> <PUBCHEM_COMPOUND_CANONICALIZED>
1

> <PUBCHEM_CACTVS_COMPLEXITY>
631

> <PUBCHEM_CACTVS_HBOND_ACCEPTOR>
10

> <PUBCHEM_CACTVS_HBOND_DONOR>
2

> <PUBCHEM_CACTVS_ROTATABLE_BOND>
9

> <PUBCHEM_CACTVS_SUBSKEYS>
AAADceB7uABAAAAAAAAAAAAAAAAAAAAAAAA8QAAAAAAAAAABwAAAHgQQQAAACAiB0gIz/ZbIFAKoACfyfHDCiDkhIqAJmDk2bJiMLC7M+dmEJChqtArI6CcQAAAAAAQAAAAAAAAACAAAAAAAAAAAAAAAAA==

> <PUBCHEM_IUPAC_OPENEYE_NAME>
methyl 3-[4-[(2,6-dimethoxypyrimidin-4-yl)sulfamoyl]anilino]-3-oxo-propanoate

> <PUBCHEM_IUPAC_CAS_NAME>
3-[4-[(2,6-dimethoxy-4-pyrimidinyl)sulfamoyl]anilino]-3-oxopropanoic acid methyl ester

> <PUBCHEM_IUPAC_NAME>
methyl 3-[4-[(2,6-dimethoxypyrimidin-4-yl)sulfamoyl]anilino]-3-oxopropanoate

> <PUBCHEM_IUPAC_SYSTEMATIC_NAME>
methyl 3-[[4-[(2,6-dimethoxypyrimidin-4-yl)sulfamoyl]phenyl]amino]-3-oxidanylidene-propanoate

> <PUBCHEM_IUPAC_TRADITIONAL_NAME>
3-[4-[(2,6-dimethoxypyrimidin-4-yl)sulfamoyl]anilino]-3-keto-propionic acid methyl ester

> <PUBCHEM_IUPAC_INCHI>
InChI=1S/C16H18N4O7S/c1-25-14-8-12(18-16(19-14)27-3)20-28(23,24)11-6-4-10(5-7-11)17-13(21)9-15(22)26-2/h4-8H,9H2,1-3H3,(H,17,21)(H,18,19,20)

> <PUBCHEM_IUPAC_INCHIKEY>
DEBARMMDMZZWAK-UHFFFAOYSA-N

> <PUBCHEM_XLOGP3>
2.1

> <PUBCHEM_EXACT_MASS>
410.08962

> <PUBCHEM_MOLECULAR_FORMULA>
C16H18N4O7S

> <PUBCHEM_MOLECULAR_WEIGHT>
410.40172

> <PUBCHEM_OPENEYE_CAN_SMILES>
COC1=NC(=NC(=C1)NS(=O)(=O)C2=CC=C(C=C2)NC(=O)CC(=O)OC)OC

> <PUBCHEM_OPENEYE_ISO_SMILES>
COC1=NC(=NC(=C1)NS(=O)(=O)C2=CC=C(C=C2)NC(=O)CC(=O)OC)OC

> <PUBCHEM_CACTVS_TPSA>
154

> <PUBCHEM_MONOISOTOPIC_WEIGHT>
410.08962

> <PUBCHEM_TOTAL_CHARGE>
0

> <PUBCHEM_HEAVY_ATOM_COUNT>
28

> <PUBCHEM_ATOM_DEF_STEREO_COUNT>
0

> <PUBCHEM_ATOM_UDEF_STEREO_COUNT>
0

> <PUBCHEM_BOND_DEF_STEREO_COUNT>
0

> <PUBCHEM_BOND_UDEF_STEREO_COUNT>
0

> <PUBCHEM_ISOTOPIC_ATOM_COUNT>
0

> <PUBCHEM_COMPONENT_COUNT>
1

> <PUBCHEM_CACTVS_TAUTO_COUNT>
15

> <PUBCHEM_COORDINATE_TYPE>
1
5
255

> <PUBCHEM_BONDANNOTATIONS>
11  19  8
11  24  8
12  23  8
12  24  8
13  14  8
13  15  8
14  17  8
15  18  8
16  17  8
16  18  8
19  20  8
20  23  8

$$$$
28646367
  -OEChem-11301217422D

 38 40  0     0  0  0  0  0  0999 V2000
    6.2781    0.8687    0.0000 N   0  3  0  0  0  0  0  0  0  0  0  0
    4.6783   -2.8480    0.0000 N   0  0  0  0  0  0  0  0  0  0  0  0
    6.5888    1.8193    0.0000 C   0  0  0  0  0  0  0  0  0  0  0  0
    7.5404    2.1266    0.0000 C   0  0  0  0  0  0  0  0  0  0  0  0
    6.0024    2.6293    0.0000 C   0  0  0  0  0  0  0  0  0  0  0  0
    7.5421    3.1266    0.0000 C   0  0  0  0  0  0  0  0  0  0  0  0
    6.5916    3.4373    0.0000 C   0  0  0  0  0  0  0  0  0  0  0  0
    5.9674   -0.0818    0.0000 C   0  0  0  0  0  0  0  0  0  0  0  0
    4.9889   -0.2880    0.0000 C   0  0  0  0  0  0  0  0  0  0  0  0
    4.6783   -1.2385    0.0000 C   0  0  0  0  0  0  0  0  0  0  0  0
    3.7320   -1.5432    0.0000 C   0  0  0  0  0  0  0  0  0  0  0  0
    5.2619   -2.0432    0.0000 C   0  0  0  0  0  0  0  0  0  0  0  0
    3.7320   -2.5432    0.0000 C   0  0  0  0  0  0  0  0  0  0  0  0
    2.8660   -1.0432    0.0000 C   0  0  0  0  0  0  0  0  0  0  0  0
    2.8660   -3.0432    0.0000 C   0  0  0  0  0  0  0  0  0  0  0  0
    2.0000   -1.5432    0.0000 C   0  0  0  0  0  0  0  0  0  0  0  0
    2.0000   -2.5432    0.0000 C   0  0  0  0  0  0  0  0  0  0  0  0
    5.9762    1.7233    0.0000 H   0  0  0  0  0  0  0  0  0  0  0  0
    7.6682    1.5200    0.0000 H   0  0  0  0  0  0  0  0  0  0  0  0
    8.1571    2.1904    0.0000 H   0  0  0  0  0  0  0  0  0  0  0  0
    5.5424    3.0450    0.0000 H   0  0  0  0  0  0  0  0  0  0  0  0
    5.5409    2.2152    0.0000 H   0  0  0  0  0  0  0  0  0  0  0  0
    8.1586    3.0608    0.0000 H   0  0  0  0  0  0  0  0  0  0  0  0
    7.6720    3.7329    0.0000 H   0  0  0  0  0  0  0  0  0  0  0  0
    6.8447    4.0033    0.0000 H   0  0  0  0  0  0  0  0  0  0  0  0
    6.0552    3.7482    0.0000 H   0  0  0  0  0  0  0  0  0  0  0  0
    6.8674    0.6761    0.0000 H   0  0  0  0  0  0  0  0  0  0  0  0
    5.6888    1.0614    0.0000 H   0  0  0  0  0  0  0  0  0  0  0  0
    5.9880   -0.7014    0.0000 H   0  0  0  0  0  0  0  0  0  0  0  0
    6.5812   -0.1691    0.0000 H   0  0  0  0  0  0  0  0  0  0  0  0
    4.9684    0.3317    0.0000 H   0  0  0  0  0  0  0  0  0  0  0  0
    4.3751   -0.2006    0.0000 H   0  0  0  0  0  0  0  0  0  0  0  0
    5.8819   -2.0432    0.0000 H   0  0  0  0  0  0  0  0  0  0  0  0
    4.8709   -3.4373    0.0000 H   0  0  0  0  0  0  0  0  0  0  0  0
    2.8660   -0.4232    0.0000 H   0  0  0  0  0  0  0  0  0  0  0  0
    2.8660   -3.6632    0.0000 H   0  0  0  0  0  0  0  0  0  0  0  0
    1.4631   -1.2332    0.0000 H   0  0  0  0  0  0  0  0  0  0  0  0
    1.4631   -2.8532    0.0000 H   0  0  0  0  0  0  0  0  0  0  0  0
  1  3  1  0  0  0  0
  1  8  1  0  0  0  0
  1 27  1  0  0  0  0
  1 28  1  0  0  0  0
  2 12  1  0  0  0  0
  2 13  1  0  0  0  0
  2 34  1  0  0  0  0
  3  4  1  0  0  0  0
  3  5  1  0  0  0  0
  3 18  1  0  0  0  0
  4  6  1  0  0  0  0
  4 19  1  0  0  0  0
  4 20  1  0  0  0  0
  5  7  1  0  0  0  0
  5 21  1  0  0  0  0
  5 22  1  0  0  0  0
  6  7  1  0  0  0  0
  6 23  1  0  0  0  0
  6 24  1  0  0  0  0
  7 25  1  0  0  0  0
  7 26  1  0  0  0  0
  8  9  1  0  0  0  0
  8 29  1  0  0  0  0
  8 30  1  0  0  0  0
  9 10  1  0  0  0  0
  9 31  1  0  0  0  0
  9 32  1  0  0  0  0
 10 11  1  0  0  0  0
 10 12  2  0  0  0  0
 11 13  1  0  0  0  0
 11 14  2  0  0  0  0
 12 33  1  0  0  0  0
 13 15  2  0  0  0  0
 14 16  1  0  0  0  0
 14 35  1  0  0  0  0
 15 17  1  0  0  0  0
 15 36  1  0  0  0  0
 16 17  2  0  0  0  0
 16 37  1  0  0  0  0
 17 38  1  0  0  0  0
M  CHG  1   1   1
M  END
> <PUBCHEM_COMPOUND_CID>
28646367

> <PUBCHEM_COMPOUND_CANONICALIZED>
1

> <PUBCHEM_CACTVS_COMPLEXITY>
235

> <PUBCHEM_CACTVS_HBOND_ACCEPTOR>
0

> <PUBCHEM_CACTVS_HBOND_DONOR>
2

> <PUBCHEM_CACTVS_ROTATABLE_BOND>
4

> <PUBCHEM_CACTVS_SUBSKEYS>
AAADceBzAAAAAAAAAAAAAAAAAAAAAeIAAAAwAAAAAAAAAFgB8AAAHAAQAAAADCjBHgQ8wPLJkACgAzRnRACCgCAxAiAI2aA4ZJgIIOLAkZGEIAhgkADIyAcQgMAOgAAAAAACAAAAAAAAAAQAAAAAAAAAAA==

> <PUBCHEM_IUPAC_OPENEYE_NAME>
cyclopentyl-[2-(1H-indol-3-yl)ethyl]ammonium

> <PUBCHEM_IUPAC_CAS_NAME>
cyclopentyl-[2-(1H-indol-3-yl)ethyl]ammonium

> <PUBCHEM_IUPAC_NAME>
cyclopentyl-[2-(1H-indol-3-yl)ethyl]azanium

> <PUBCHEM_IUPAC_SYSTEMATIC_NAME>
cyclopentyl-[2-(1H-indol-3-yl)ethyl]azanium

> <PUBCHEM_IUPAC_TRADITIONAL_NAME>
cyclopentyl-[2-(1H-indol-3-yl)ethyl]ammonium

> <PUBCHEM_IUPAC_INCHI>
InChI=1S/C15H20N2/c1-2-6-13(5-1)16-10-9-12-11-17-15-8-4-3-7-14(12)15/h3-4,7-8,11,13,16-17H,1-2,5-6,9-10H2/p+1

> <PUBCHEM_IUPAC_INCHIKEY>
NCWRXLLABANDBN-UHFFFAOYSA-O

> <PUBCHEM_XLOGP3>
3.3

> <PUBCHEM_EXACT_MASS>
229.170474

> <PUBCHEM_MOLECULAR_FORMULA>
C15H21N2+

> <PUBCHEM_MOLECULAR_WEIGHT>
229.34064

> <PUBCHEM_OPENEYE_CAN_SMILES>
C1CCC(C1)[NH2+]CCC2=CNC3=CC=CC=C32

> <PUBCHEM_OPENEYE_ISO_SMILES>
C1CCC(C1)[NH2+]CCC2=CNC3=CC=CC=C32

> <PUBCHEM_CACTVS_TPSA>
32.4

> <PUBCHEM_MONOISOTOPIC_WEIGHT>
229.170474

> <PUBCHEM_TOTAL_CHARGE>
1

> <PUBCHEM_HEAVY_ATOM_COUNT>
17

> <PUBCHEM_ATOM_DEF_STEREO_COUNT>
0

> <PUBCHEM_ATOM_UDEF_STEREO_COUNT>
0

> <PUBCHEM_BOND_DEF_STEREO_COUNT>
0

> <PUBCHEM_BOND_UDEF_STEREO_COUNT>
0

> <PUBCHEM_ISOTOPIC_ATOM_COUNT>
0

> <PUBCHEM_COMPONENT_COUNT>
1

> <PUBCHEM_CACTVS_TAUTO_COUNT>
1

> <PUBCHEM_COORDINATE_TYPE>
1
5
255

> <PUBCHEM_BONDANNOTATIONS>
10  11  8
10  12  8
11  13  8
11  14  8
13  15  8
14  16  8
15  17  8
16  17  8
2  12  8
2  13  8

$$$$
28646377
  -OEChem-11301217422D

 39 40  0     0  0  0  0  0  0999 V2000
    6.2781    0.9963    0.0000 N   0  0  0  0  0  0  0  0  0  0  0  0
    4.6783   -2.7204    0.0000 N   0  0  0  0  0  0  0  0  0  0  0  0
    7.5673    2.1530    0.0000 C   0  0  0  0  0  0  0  0  0  0  0  0
    8.5458    2.3592    0.0000 C   0  0  0  0  0  0  0  0  0  0  0  0
    7.2566    1.2025    0.0000 C   0  0  0  0  0  0  0  0  0  0  0  0
    4.9889   -0.1605    0.0000 C   0  0  0  0  0  0  0  0  0  0  0  0
    5.9674    0.0458    0.0000 C   0  0  0  0  0  0  0  0  0  0  0  0
    4.6783   -1.1110    0.0000 C   0  0  0  0  0  0  0  0  0  0  0  0
    3.7320   -1.4157    0.0000 C   0  0  0  0  0  0  0  0  0  0  0  0
    8.8564    3.3098    0.0000 C   0  0  0  0  0  0  0  0  0  0  0  0
    9.2136    1.6149    0.0000 C   0  0  0  0  0  0  0  0  0  0  0  0
    3.7320   -2.4157    0.0000 C   0  0  0  0  0  0  0  0  0  0  0  0
    5.2619   -1.9157    0.0000 C   0  0  0  0  0  0  0  0  0  0  0  0
    2.8660   -0.9157    0.0000 C   0  0  0  0  0  0  0  0  0  0  0  0
    2.8660   -2.9157    0.0000 C   0  0  0  0  0  0  0  0  0  0  0  0
    2.0000   -1.4157    0.0000 C   0  0  0  0  0  0  0  0  0  0  0  0
    2.0000   -2.4157    0.0000 C   0  0  0  0  0  0  0  0  0  0  0  0
    7.5467    2.7727    0.0000 H   0  0  0  0  0  0  0  0  0  0  0  0
    6.9534    2.2404    0.0000 H   0  0  0  0  0  0  0  0  0  0  0  0
    8.3532    1.7699    0.0000 H   0  0  0  0  0  0  0  0  0  0  0  0
    7.2772    0.5828    0.0000 H   0  0  0  0  0  0  0  0  0  0  0  0
    7.8704    1.1152    0.0000 H   0  0  0  0  0  0  0  0  0  0  0  0
    4.9684    0.4592    0.0000 H   0  0  0  0  0  0  0  0  0  0  0  0
    4.3751   -0.0731    0.0000 H   0  0  0  0  0  0  0  0  0  0  0  0
    5.9880   -0.5739    0.0000 H   0  0  0  0  0  0  0  0  0  0  0  0
    6.5812   -0.0416    0.0000 H   0  0  0  0  0  0  0  0  0  0  0  0
    5.8640    1.4578    0.0000 H   0  0  0  0  0  0  0  0  0  0  0  0
    8.7522    1.2009    0.0000 H   0  0  0  0  0  0  0  0  0  0  0  0
    9.4458    3.1172    0.0000 H   0  0  0  0  0  0  0  0  0  0  0  0
    9.0490    3.8991    0.0000 H   0  0  0  0  0  0  0  0  0  0  0  0
    8.2671    3.5024    0.0000 H   0  0  0  0  0  0  0  0  0  0  0  0
    9.6277    1.1535    0.0000 H   0  0  0  0  0  0  0  0  0  0  0  0
    9.6751    2.0290    0.0000 H   0  0  0  0  0  0  0  0  0  0  0  0
    5.8819   -1.9157    0.0000 H   0  0  0  0  0  0  0  0  0  0  0  0
    4.8709   -3.3098    0.0000 H   0  0  0  0  0  0  0  0  0  0  0  0
    2.8660   -0.2957    0.0000 H   0  0  0  0  0  0  0  0  0  0  0  0
    2.8660   -3.5357    0.0000 H   0  0  0  0  0  0  0  0  0  0  0  0
    1.4631   -1.1057    0.0000 H   0  0  0  0  0  0  0  0  0  0  0  0
    1.4631   -2.7257    0.0000 H   0  0  0  0  0  0  0  0  0  0  0  0
  1  5  1  0  0  0  0
  1  7  1  0  0  0  0
  1 27  1  0  0  0  0
  2 12  1  0  0  0  0
  2 13  1  0  0  0  0
  2 35  1  0  0  0  0
  3  4  1  0  0  0  0
  3  5  1  0  0  0  0
  3 18  1  0  0  0  0
  3 19  1  0  0  0  0
  4 10  1  0  0  0  0
  4 11  1  0  0  0  0
  4 20  1  0  0  0  0
  5 21  1  0  0  0  0
  5 22  1  0  0  0  0
  6  7  1  0  0  0  0
  6  8  1  0  0  0  0
  6 23  1  0  0  0  0
  6 24  1  0  0  0  0
  7 25  1  0  0  0  0
  7 26  1  0  0  0  0
  8  9  1  0  0  0  0
  8 13  2  0  0  0  0
  9 12  1  0  0  0  0
  9 14  2  0  0  0  0
 10 29  1  0  0  0  0
 10 30  1  0  0  0  0
 10 31  1  0  0  0  0
 11 28  1  0  0  0  0
 11 32  1  0  0  0  0
 11 33  1  0  0  0  0
 12 15  2  0  0  0  0
 13 34  1  0  0  0  0
 14 16  1  0  0  0  0
 14 36  1  0  0  0  0
 15 17  1  0  0  0  0
 15 37  1  0  0  0  0
 16 17  2  0  0  0  0
 16 38  1  0  0  0  0
 17 39  1  0  0  0  0
M  END
> <PUBCHEM_COMPOUND_CID>
28646377

> <PUBCHEM_COMPOUND_CANONICALIZED>
1

> <PUBCHEM_CACTVS_COMPLEXITY>
215

> <PUBCHEM_CACTVS_HBOND_ACCEPTOR>
1

> <PUBCHEM_CACTVS_HBOND_DONOR>
2

> <PUBCHEM_CACTVS_ROTATABLE_BOND>
6

> <PUBCHEM_CACTVS_SUBSKEYS>
AAADceBzAAAAAAAAAAAAAAAAAAAAAWAAAAAwAAAAAAAAAFgB8AAAHAAQAAAADQjBHgQ+wPLJkACgAzRnRACCgCAxAiAI2aA4ZJgIIOLAkZGEIAhgkADIyAcQgMAOgAAAAAACAAAAAAAAAAQAAAAAAAAAAA==

> <PUBCHEM_IUPAC_OPENEYE_NAME>
N-[2-(1H-indol-3-yl)ethyl]-3-methyl-butan-1-amine

> <PUBCHEM_IUPAC_CAS_NAME>
N-[2-(1H-indol-3-yl)ethyl]-3-methyl-1-butanamine

> <PUBCHEM_IUPAC_NAME>
N-[2-(1H-indol-3-yl)ethyl]-3-methylbutan-1-amine

> <PUBCHEM_IUPAC_SYSTEMATIC_NAME>
N-[2-(1H-indol-3-yl)ethyl]-3-methyl-butan-1-amine

> <PUBCHEM_IUPAC_TRADITIONAL_NAME>
2-(1H-indol-3-yl)ethyl-isoamyl-amine

> <PUBCHEM_IUPAC_INCHI>
InChI=1S/C15H22N2/c1-12(2)7-9-16-10-8-13-11-17-15-6-4-3-5-14(13)15/h3-6,11-12,16-17H,7-10H2,1-2H3

> <PUBCHEM_IUPAC_INCHIKEY>
LNPTWYDXPVIVFZ-UHFFFAOYSA-N

> <PUBCHEM_XLOGP3>
3.7

> <PUBCHEM_EXACT_MASS>
230.178299

> <PUBCHEM_MOLECULAR_FORMULA>
C15H22N2

> <PUBCHEM_MOLECULAR_WEIGHT>
230.34858

> <PUBCHEM_OPENEYE_CAN_SMILES>
CC(C)CCNCCC1=CNC2=CC=CC=C21

> <PUBCHEM_OPENEYE_ISO_SMILES>
CC(C)CCNCCC1=CNC2=CC=CC=C21

> <PUBCHEM_CACTVS_TPSA>
27.8

> <PUBCHEM_MONOISOTOPIC_WEIGHT>
230.178299

> <PUBCHEM_TOTAL_CHARGE>
0

> <PUBCHEM_HEAVY_ATOM_COUNT>
17

> <PUBCHEM_ATOM_DEF_STEREO_COUNT>
0

> <PUBCHEM_ATOM_UDEF_STEREO_COUNT>
0

> <PUBCHEM_BOND_DEF_STEREO_COUNT>
0

> <PUBCHEM_BOND_UDEF_STEREO_COUNT>
0

> <PUBCHEM_ISOTOPIC_ATOM_COUNT>
0

> <PUBCHEM_COMPONENT_COUNT>
1

> <PUBCHEM_CACTVS_TAUTO_COUNT>
1

> <PUBCHEM_COORDINATE_TYPE>
1
5
255

> <PUBCHEM_BONDANNOTATIONS>
12  15  8
14  16  8
15  17  8
16  17  8
2  12  8
2  13  8
8  13  8
8  9  8
9  12  8
9  14  8

$$$$
28646412
  -OEChem-11301217422D

 39 40  0     0  0  0  0  0  0999 V2000
    6.2781    1.4715    0.0000 N   0  0  0  0  0  0  0  0  0  0  0  0
    4.6783   -2.2452    0.0000 N   0  0  0  0  0  0  0  0  0  0  0  0
    7.2566    1.6778    0.0000 C   0  0  0  0  0  0  0  0  0  0  0  0
    5.9674    0.5210    0.0000 C   0  0  0  0  0  0  0  0  0  0  0  0
    7.5673    2.6283    0.0000 C   0  0  0  0  0  0  0  0  0  0  0  0
    7.9244    0.9335    0.0000 C   0  0  0  0  0  0  0  0  0  0  0  0
    4.9889    0.3148    0.0000 C   0  0  0  0  0  0  0  0  0  0  0  0
    4.6783   -0.6357    0.0000 C   0  0  0  0  0  0  0  0  0  0  0  0
    3.7320   -0.9404    0.0000 C   0  0  0  0  0  0  0  0  0  0  0  0
    3.7320   -1.9404    0.0000 C   0  0  0  0  0  0  0  0  0  0  0  0
    8.5458    2.8345    0.0000 C   0  0  0  0  0  0  0  0  0  0  0  0
    8.9030    1.1397    0.0000 C   0  0  0  0  0  0  0  0  0  0  0  0
    5.2619   -1.4404    0.0000 C   0  0  0  0  0  0  0  0  0  0  0  0
    2.8660   -0.4404    0.0000 C   0  0  0  0  0  0  0  0  0  0  0  0
    2.8660   -2.4404    0.0000 C   0  0  0  0  0  0  0  0  0  0  0  0
    2.0000   -0.9404    0.0000 C   0  0  0  0  0  0  0  0  0  0  0  0
    2.0000   -1.9404    0.0000 C   0  0  0  0  0  0  0  0  0  0  0  0
    7.0640    1.0884    0.0000 H   0  0  0  0  0  0  0  0  0  0  0  0
    5.9880   -0.0986    0.0000 H   0  0  0  0  0  0  0  0  0  0  0  0
    6.5812    0.4337    0.0000 H   0  0  0  0  0  0  0  0  0  0  0  0
    5.8640    1.9330    0.0000 H   0  0  0  0  0  0  0  0  0  0  0  0
    7.5467    3.2479    0.0000 H   0  0  0  0  0  0  0  0  0  0  0  0
    6.9534    2.7156    0.0000 H   0  0  0  0  0  0  0  0  0  0  0  0
    7.3981    0.6058    0.0000 H   0  0  0  0  0  0  0  0  0  0  0  0
    8.1557    0.3582    0.0000 H   0  0  0  0  0  0  0  0  0  0  0  0
    4.9684    0.9345    0.0000 H   0  0  0  0  0  0  0  0  0  0  0  0
    4.3751    0.4022    0.0000 H   0  0  0  0  0  0  0  0  0  0  0  0
    9.0308    0.5330    0.0000 H   0  0  0  0  0  0  0  0  0  0  0  0
    8.6736    2.2278    0.0000 H   0  0  0  0  0  0  0  0  0  0  0  0
    9.1524    2.9624    0.0000 H   0  0  0  0  0  0  0  0  0  0  0  0
    8.4179    3.4412    0.0000 H   0  0  0  0  0  0  0  0  0  0  0  0
    9.5096    1.2675    0.0000 H   0  0  0  0  0  0  0  0  0  0  0  0
    8.7751    1.7464    0.0000 H   0  0  0  0  0  0  0  0  0  0  0  0
    5.8819   -1.4404    0.0000 H   0  0  0  0  0  0  0  0  0  0  0  0
    4.8709   -2.8345    0.0000 H   0  0  0  0  0  0  0  0  0  0  0  0
    2.8660    0.1796    0.0000 H   0  0  0  0  0  0  0  0  0  0  0  0
    2.8660   -3.0604    0.0000 H   0  0  0  0  0  0  0  0  0  0  0  0
    1.4631   -0.6304    0.0000 H   0  0  0  0  0  0  0  0  0  0  0  0
    1.4631   -2.2504    0.0000 H   0  0  0  0  0  0  0  0  0  0  0  0
  1  3  1  0  0  0  0
  1  4  1  0  0  0  0
  1 21  1  0  0  0  0
  2 10  1  0  0  0  0
  2 13  1  0  0  0  0
  2 35  1  0  0  0  0
  3  5  1  0  0  0  0
  3  6  1  0  0  0  0
  3 18  1  0  0  0  0
  4  7  1  0  0  0  0
  4 19  1  0  0  0  0
  4 20  1  0  0  0  0
  5 11  1  0  0  0  0
  5 22  1  0  0  0  0
  5 23  1  0  0  0  0
  6 12  1  0  0  0  0
  6 24  1  0  0  0  0
  6 25  1  0  0  0  0
  7  8  1  0  0  0  0
  7 26  1  0  0  0  0
  7 27  1  0  0  0  0
  8  9  1  0  0  0  0
  8 13  2  0  0  0  0
  9 10  1  0  0  0  0
  9 14  2  0  0  0  0
 10 15  2  0  0  0  0
 11 29  1  0  0  0  0
 11 30  1  0  0  0  0
 11 31  1  0  0  0  0
 12 28  1  0  0  0  0
 12 32  1  0  0  0  0
 12 33  1  0  0  0  0
 13 34  1  0  0  0  0
 14 16  1  0  0  0  0
 14 36  1  0  0  0  0
 15 17  1  0  0  0  0
 15 37  1  0  0  0  0
 16 17  2  0  0  0  0
 16 38  1  0  0  0  0
 17 39  1  0  0  0  0
M  END
> <PUBCHEM_COMPOUND_CID>
28646412

> <PUBCHEM_COMPOUND_CANONICALIZED>
1

> <PUBCHEM_CACTVS_COMPLEXITY>
213

> <PUBCHEM_CACTVS_HBOND_ACCEPTOR>
1

> <PUBCHEM_CACTVS_HBOND_DONOR>
2

> <PUBCHEM_CACTVS_ROTATABLE_BOND>
6

> <PUBCHEM_CACTVS_SUBSKEYS>
AAADceBzAAAAAAAAAAAAAAAAAAAAAWAAAAAwAAAAAAAAAFgB8AAAHAAQAAAADCjBHgQ+wPLJkACgAzRnRACCgCAxAiAI2aA4ZJgIIOLAkZGEIAhgkADIyAcQgMAOgAAAAAACAAAAAAAAAAQAAAAAAAAAAA==

> <PUBCHEM_IUPAC_OPENEYE_NAME>
N-[2-(1H-indol-3-yl)ethyl]pentan-3-amine

> <PUBCHEM_IUPAC_CAS_NAME>
N-[2-(1H-indol-3-yl)ethyl]-3-pentanamine

> <PUBCHEM_IUPAC_NAME>
N-[2-(1H-indol-3-yl)ethyl]pentan-3-amine

> <PUBCHEM_IUPAC_SYSTEMATIC_NAME>
N-[2-(1H-indol-3-yl)ethyl]pentan-3-amine

> <PUBCHEM_IUPAC_TRADITIONAL_NAME>
1-ethylpropyl-[2-(1H-indol-3-yl)ethyl]amine

> <PUBCHEM_IUPAC_INCHI>
InChI=1S/C15H22N2/c1-3-13(4-2)16-10-9-12-11-17-15-8-6-5-7-14(12)15/h5-8,11,13,16-17H,3-4,9-10H2,1-2H3

> <PUBCHEM_IUPAC_INCHIKEY>
NIBNDLYJPDUKMZ-UHFFFAOYSA-N

> <PUBCHEM_XLOGP3>
3.9

> <PUBCHEM_EXACT_MASS>
230.178299

> <PUBCHEM_MOLECULAR_FORMULA>
C15H22N2

> <PUBCHEM_MOLECULAR_WEIGHT>
230.34858

> <PUBCHEM_OPENEYE_CAN_SMILES>
CCC(CC)NCCC1=CNC2=CC=CC=C21

> <PUBCHEM_OPENEYE_ISO_SMILES>
CCC(CC)NCCC1=CNC2=CC=CC=C21

> <PUBCHEM_CACTVS_TPSA>
27.8

> <PUBCHEM_MONOISOTOPIC_WEIGHT>
230.178299

> <PUBCHEM_TOTAL_CHARGE>
0

> <PUBCHEM_HEAVY_ATOM_COUNT>
17

> <PUBCHEM_ATOM_DEF_STEREO_COUNT>
0

> <PUBCHEM_ATOM_UDEF_STEREO_COUNT>
0

> <PUBCHEM_BOND_DEF_STEREO_COUNT>
0

> <PUBCHEM_BOND_UDEF_STEREO_COUNT>
0

> <PUBCHEM_ISOTOPIC_ATOM_COUNT>
0

> <PUBCHEM_COMPONENT_COUNT>
1

> <PUBCHEM_CACTVS_TAUTO_COUNT>
1

> <PUBCHEM_COORDINATE_TYPE>
1
5
255

> <PUBCHEM_BONDANNOTATIONS>
10  15  8
14  16  8
15  17  8
16  17  8
2  10  8
2  13  8
8  13  8
8  9  8
9  10  8
9  14  8

$$$$
