5538948
  -OEChem-02051306582D

 43 46  0     1  0  0  0  0  0999 V2000
    2.5381   -0.4801    0.0000 O   0  0  0  0  0  0  0  0  0  0  0  0
    6.5124    1.0350    0.0000 N   0  3  3  0  0  0  0  0  0  0  0  0
    6.0682   -0.4560    0.0000 C   0  0  1  0  0  0  0  0  0  0  0  0
    6.9343    0.0440    0.0000 C   0  0  2  0  0  0  0  0  0  0  0  0
    6.9343    1.0440    0.0000 C   0  0  2  0  0  0  0  0  0  0  0  0
    5.8652   -0.0860    0.0000 C   0  0  0  0  0  0  0  0  0  0  0  0
    6.0522   -1.4975    0.0000 C   0  0  0  0  0  0  0  0  0  0  0  0
    7.8443   -0.4628    0.0000 C   0  0  0  0  0  0  0  0  0  0  0  0
    5.7815    0.7096    0.0000 C   0  0  0  0  0  0  0  0  0  0  0  0
    5.2022    0.0440    0.0000 C   0  0  0  0  0  0  0  0  0  0  0  0
    6.0682    1.5440    0.0000 C   0  0  0  0  0  0  0  0  0  0  0  0
    6.9502   -2.0252    0.0000 C   0  0  0  0  0  0  0  0  0  0  0  0
    7.8523   -1.5044    0.0000 C   0  0  0  0  0  0  0  0  0  0  0  0
    5.2022    1.0440    0.0000 C   0  0  0  0  0  0  0  0  0  0  0  0
    6.3732    2.0252    0.0000 C   0  0  0  0  0  0  0  0  0  0  0  0
    4.3083   -0.4906    0.0000 C   0  0  0  0  0  0  0  0  0  0  0  0
    4.3083    1.5787    0.0000 C   0  0  0  0  0  0  0  0  0  0  0  0
    3.4022    0.0232    0.0000 C   0  0  0  0  0  0  0  0  0  0  0  0
    3.4022    1.0648    0.0000 C   0  0  0  0  0  0  0  0  0  0  0  0
    7.6704    0.4690    0.0000 H   0  0  0  0  0  0  0  0  0  0  0  0
    7.6704    1.4690    0.0000 H   0  0  0  0  0  0  0  0  0  0  0  0
    5.2704    0.0891    0.0000 H   0  0  0  0  0  0  0  0  0  0  0  0
    6.4568    0.0992    0.0000 H   0  0  0  0  0  0  0  0  0  0  0  0
    6.7446    1.6098    0.0000 H   0  0  0  0  0  0  0  0  0  0  0  0
    5.4431   -1.3820    0.0000 H   0  0  0  0  0  0  0  0  0  0  0  0
    5.8342   -2.0779    0.0000 H   0  0  0  0  0  0  0  0  0  0  0  0
    8.4559   -0.5642    0.0000 H   0  0  0  0  0  0  0  0  0  0  0  0
    8.0488    0.1225    0.0000 H   0  0  0  0  0  0  0  0  0  0  0  0
    5.5899    1.2992    0.0000 H   0  0  0  0  0  0  0  0  0  0  0  0
    5.1751    0.5807    0.0000 H   0  0  0  0  0  0  0  0  0  0  0  0
    6.4668    2.0190    0.0000 H   0  0  0  0  0  0  0  0  0  0  0  0
    5.6697    2.0190    0.0000 H   0  0  0  0  0  0  0  0  0  0  0  0
    6.5493   -2.4981    0.0000 H   0  0  0  0  0  0  0  0  0  0  0  0
    7.3475   -2.5012    0.0000 H   0  0  0  0  0  0  0  0  0  0  0  0
    8.0659   -2.0865    0.0000 H   0  0  0  0  0  0  0  0  0  0  0  0
    8.4623   -1.3936    0.0000 H   0  0  0  0  0  0  0  0  0  0  0  0
    6.9872    2.1115    0.0000 H   0  0  0  0  0  0  0  0  0  0  0  0
    6.2869    2.6392    0.0000 H   0  0  0  0  0  0  0  0  0  0  0  0
    5.7592    1.9389    0.0000 H   0  0  0  0  0  0  0  0  0  0  0  0
    4.3154   -1.1106    0.0000 H   0  0  0  0  0  0  0  0  0  0  0  0
    4.3154    2.1987    0.0000 H   0  0  0  0  0  0  0  0  0  0  0  0
    2.8665    1.3769    0.0000 H   0  0  0  0  0  0  0  0  0  0  0  0
    2.0000   -0.1722    0.0000 H   0  0  0  0  0  0  0  0  0  0  0  0
  1 18  1  0  0  0  0
  1 43  1  0  0  0  0
  2  5  1  0  0  0  0
  2  9  1  0  0  0  0
  2 15  1  0  0  0  0
  2 24  1  0  0  0  0
  3  4  1  0  0  0  0
  3  6  1  0  0  0  0
  3  7  1  6  0  0  0
  3 10  1  0  0  0  0
  4  5  1  0  0  0  0
  4  8  1  0  0  0  0
  4 20  1  1  0  0  0
  5 11  1  0  0  0  0
  5 21  1  6  0  0  0
  6  9  1  0  0  0  0
  6 22  1  0  0  0  0
  6 23  1  0  0  0  0
  7 12  1  0  0  0  0
  7 25  1  0  0  0  0
  7 26  1  0  0  0  0
  8 13  1  0  0  0  0
  8 27  1  0  0  0  0
  8 28  1  0  0  0  0
  9 29  1  0  0  0  0
  9 30  1  0  0  0  0
 10 14  2  0  0  0  0
 10 16  1  0  0  0  0
 11 14  1  0  0  0  0
 11 31  1  0  0  0  0
 11 32  1  0  0  0  0
 12 13  1  0  0  0  0
 12 33  1  0  0  0  0
 12 34  1  0  0  0  0
 13 35  1  0  0  0  0
 13 36  1  0  0  0  0
 14 17  1  0  0  0  0
 15 37  1  0  0  0  0
 15 38  1  0  0  0  0
 15 39  1  0  0  0  0
 16 18  2  0  0  0  0
 16 40  1  0  0  0  0
 17 19  2  0  0  0  0
 17 41  1  0  0  0  0
 18 19  1  0  0  0  0
 19 42  1  0  0  0  0
M  CHG  1   2   1
M  END
> <PUBCHEM_COMPOUND_CID>
5538948

> <PUBCHEM_COMPOUND_CANONICALIZED>
1

> <PUBCHEM_CACTVS_COMPLEXITY>
357

> <PUBCHEM_CACTVS_HBOND_ACCEPTOR>
1

> <PUBCHEM_CACTVS_HBOND_DONOR>
2

> <PUBCHEM_CACTVS_ROTATABLE_BOND>
0

> <PUBCHEM_CACTVS_SUBSKEYS>
AAADceB6IAAAAAAAAAAAAAAAAAAAAAAAAAA8YMEAAAAWAADxAAAAHgAQCAAADyzBmAQyBoPAAgCAAiBCAAACAAAgIAAIiIAOCIgIJiKCkROEcAAk0BGImAeQwPAPoAABAAAQAADQAAaAACQAAAAAAAAAAA==

> <PUBCHEM_IUPAC_INCHI>
InChI=1S/C17H23NO/c1-18-9-8-17-7-3-2-4-14(17)16(18)10-12-5-6-13(19)11-15(12)17/h5-6,11,14,16,19H,2-4,7-10H2,1H3/p+1/t14-,16-,17-/m0/s1

> <PUBCHEM_IUPAC_INCHIKEY>
JAQUASYNZVUNQP-XIRDDKMYSA-O

> <PUBCHEM_XLOGP3>
3.1

> <PUBCHEM_EXACT_MASS>
258.185789

> <PUBCHEM_MOLECULAR_FORMULA>
C17H24NO+

> <PUBCHEM_MOLECULAR_WEIGHT>
258.37856

> <PUBCHEM_OPENEYE_CAN_SMILES>
C[NH+]1CCC23CCCCC2C1CC4=C3C=C(C=C4)O

> <PUBCHEM_OPENEYE_ISO_SMILES>
C[NH+]1CC[C@@]23CCCC[C@H]2[C@@H]1CC4=C3C=C(C=C4)O

> <PUBCHEM_CACTVS_TPSA>
24.7

> <PUBCHEM_MONOISOTOPIC_WEIGHT>
258.185789

> <PUBCHEM_TOTAL_CHARGE>
1

> <PUBCHEM_HEAVY_ATOM_COUNT>
19

> <PUBCHEM_ATOM_DEF_STEREO_COUNT>
3

> <PUBCHEM_ATOM_UDEF_STEREO_COUNT>
0

> <PUBCHEM_BOND_DEF_STEREO_COUNT>
0

> <PUBCHEM_BOND_UDEF_STEREO_COUNT>
0

> <PUBCHEM_ISOTOPIC_ATOM_COUNT>
0

> <PUBCHEM_COMPONENT_COUNT>
1

> <PUBCHEM_CACTVS_TAUTO_COUNT>
3

> <PUBCHEM_COORDINATE_TYPE>
1
5
255

> <PUBCHEM_BONDANNOTATIONS>
10  14  8
10  16  8
14  17  8
16  18  8
17  19  8
18  19  8
3  7  6
4  20  5
5  21  6

$$$$
5548841
  -OEChem-02051306582D

 49 51  0     0  0  0  0  0  0999 V2000
    2.2540    3.5981    0.0000 O   0  0  0  0  0  0  0  0  0  0  0  0
    3.1200    0.0981    0.0000 N   0  3  0  0  0  0  0  0  0  0  0  0
    3.1200    2.0981    0.0000 N   0  0  0  0  0  0  0  0  0  0  0  0
    2.2540    0.5981    0.0000 C   0  0  0  0  0  0  0  0  0  0  0  0
    3.9860    0.5981    0.0000 C   0  0  0  0  0  0  0  0  0  0  0  0
    2.2540    1.5981    0.0000 C   0  0  0  0  0  0  0  0  0  0  0  0
    3.9860    1.5981    0.0000 C   0  0  0  0  0  0  0  0  0  0  0  0
    2.6200   -0.7679    0.0000 C   0  0  0  0  0  0  0  0  0  0  0  0
    3.1200    3.0981    0.0000 C   0  0  0  0  0  0  0  0  0  0  0  0
    3.1200   -1.6340    0.0000 C   0  0  0  0  0  0  0  0  0  0  0  0
    3.9860    3.5981    0.0000 C   0  0  0  0  0  0  0  0  0  0  0  0
    2.6200   -2.5000    0.0000 C   0  0  0  0  0  0  0  0  0  0  0  0
    3.9860    4.5981    0.0000 C   0  0  0  0  0  0  0  0  0  0  0  0
    4.8520    3.0981    0.0000 C   0  0  0  0  0  0  0  0  0  0  0  0
    3.1200   -3.3660    0.0000 C   0  0  0  0  0  0  0  0  0  0  0  0
    4.8520    5.0981    0.0000 C   0  0  0  0  0  0  0  0  0  0  0  0
    5.7181    3.5981    0.0000 C   0  0  0  0  0  0  0  0  0  0  0  0
    5.7181    4.5981    0.0000 C   0  0  0  0  0  0  0  0  0  0  0  0
    4.1200   -3.3660    0.0000 C   0  0  0  0  0  0  0  0  0  0  0  0
    2.6200   -4.2320    0.0000 C   0  0  0  0  0  0  0  0  0  0  0  0
    6.5841    5.0981    0.0000 C   0  0  0  0  0  0  0  0  0  0  0  0
    4.6200   -4.2320    0.0000 C   0  0  0  0  0  0  0  0  0  0  0  0
    3.1200   -5.0981    0.0000 C   0  0  0  0  0  0  0  0  0  0  0  0
    4.1200   -5.0981    0.0000 C   0  0  0  0  0  0  0  0  0  0  0  0
    3.4300   -0.4389    0.0000 H   0  0  0  0  0  0  0  0  0  0  0  0
    1.6434    0.7057    0.0000 H   0  0  0  0  0  0  0  0  0  0  0  0
    2.0419    0.0155    0.0000 H   0  0  0  0  0  0  0  0  0  0  0  0
    4.1981    0.0155    0.0000 H   0  0  0  0  0  0  0  0  0  0  0  0
    4.5966    0.7057    0.0000 H   0  0  0  0  0  0  0  0  0  0  0  0
    4.5966    1.4904    0.0000 H   0  0  0  0  0  0  0  0  0  0  0  0
    4.1981    2.1807    0.0000 H   0  0  0  0  0  0  0  0  0  0  0  0
    2.0419    2.1807    0.0000 H   0  0  0  0  0  0  0  0  0  0  0  0
    1.6434    1.4904    0.0000 H   0  0  0  0  0  0  0  0  0  0  0  0
    2.1450   -0.3694    0.0000 H   0  0  0  0  0  0  0  0  0  0  0  0
    2.1450   -1.1665    0.0000 H   0  0  0  0  0  0  0  0  0  0  0  0
    3.7400   -1.6340    0.0000 H   0  0  0  0  0  0  0  0  0  0  0  0
    2.0000   -2.5000    0.0000 H   0  0  0  0  0  0  0  0  0  0  0  0
    3.4491    4.9081    0.0000 H   0  0  0  0  0  0  0  0  0  0  0  0
    4.8520    2.4781    0.0000 H   0  0  0  0  0  0  0  0  0  0  0  0
    4.8520    5.7181    0.0000 H   0  0  0  0  0  0  0  0  0  0  0  0
    6.2550    3.2881    0.0000 H   0  0  0  0  0  0  0  0  0  0  0  0
    4.4300   -2.8291    0.0000 H   0  0  0  0  0  0  0  0  0  0  0  0
    2.0000   -4.2320    0.0000 H   0  0  0  0  0  0  0  0  0  0  0  0
    6.8941    4.5611    0.0000 H   0  0  0  0  0  0  0  0  0  0  0  0
    7.1210    5.4081    0.0000 H   0  0  0  0  0  0  0  0  0  0  0  0
    6.2741    5.6350    0.0000 H   0  0  0  0  0  0  0  0  0  0  0  0
    5.2400   -4.2320    0.0000 H   0  0  0  0  0  0  0  0  0  0  0  0
    2.8100   -5.6350    0.0000 H   0  0  0  0  0  0  0  0  0  0  0  0
    4.4300   -5.6350    0.0000 H   0  0  0  0  0  0  0  0  0  0  0  0
  1  9  2  0  0  0  0
  2  4  1  0  0  0  0
  2  5  1  0  0  0  0
  2  8  1  0  0  0  0
  2 25  1  0  0  0  0
  3  6  1  0  0  0  0
  3  7  1  0  0  0  0
  3  9  1  0  0  0  0
  4  6  1  0  0  0  0
  4 26  1  0  0  0  0
  4 27  1  0  0  0  0
  5  7  1  0  0  0  0
  5 28  1  0  0  0  0
  5 29  1  0  0  0  0
  6 32  1  0  0  0  0
  6 33  1  0  0  0  0
  7 30  1  0  0  0  0
  7 31  1  0  0  0  0
  8 10  1  0  0  0  0
  8 34  1  0  0  0  0
  8 35  1  0  0  0  0
  9 11  1  0  0  0  0
 10 12  2  0  0  0  0
 10 36  1  0  0  0  0
 11 13  2  0  0  0  0
 11 14  1  0  0  0  0
 12 15  1  0  0  0  0
 12 37  1  0  0  0  0
 13 16  1  0  0  0  0
 13 38  1  0  0  0  0
 14 17  2  0  0  0  0
 14 39  1  0  0  0  0
 15 19  2  0  0  0  0
 15 20  1  0  0  0  0
 16 18  2  0  0  0  0
 16 40  1  0  0  0  0
 17 18  1  0  0  0  0
 17 41  1  0  0  0  0
 18 21  1  0  0  0  0
 19 22  1  0  0  0  0
 19 42  1  0  0  0  0
 20 23  2  0  0  0  0
 20 43  1  0  0  0  0
 21 44  1  0  0  0  0
 21 45  1  0  0  0  0
 21 46  1  0  0  0  0
 22 24  2  0  0  0  0
 22 47  1  0  0  0  0
 23 24  1  0  0  0  0
 23 48  1  0  0  0  0
 24 49  1  0  0  0  0
M  CHG  1   2   1
M  END
> <PUBCHEM_COMPOUND_CID>
5548841

> <PUBCHEM_COMPOUND_CANONICALIZED>
1

> <PUBCHEM_CACTVS_COMPLEXITY>
412

> <PUBCHEM_CACTVS_HBOND_ACCEPTOR>
1

> <PUBCHEM_CACTVS_HBOND_DONOR>
1

> <PUBCHEM_CACTVS_ROTATABLE_BOND>
4

> <PUBCHEM_CACTVS_SUBSKEYS>
AAADceB7IAAAAAAAAAAAAAAAAAAAAAAAAAA8YIAAAAAAAAABQAAAHgAQAAAADADBmAQyAIPAAACIAiFSEACCAAAkAAAIiIEIBMgIYDKAlRGUIQhglgCIiYcYiACOQAAAAAAAAACAAAAAAAAAAAAAAAAAAA==

> <PUBCHEM_IUPAC_OPENEYE_NAME>
[4-[(E)-cinnamyl]piperazin-4-ium-1-yl]-(p-tolyl)methanone

> <PUBCHEM_IUPAC_CAS_NAME>
(4-methylphenyl)-[4-[(E)-3-phenylprop-2-enyl]-1-piperazin-4-iumyl]methanone

> <PUBCHEM_IUPAC_NAME>
(4-methylphenyl)-[4-[(E)-3-phenylprop-2-enyl]piperazin-4-ium-1-yl]methanone

> <PUBCHEM_IUPAC_SYSTEMATIC_NAME>
(4-methylphenyl)-[4-[(E)-3-phenylprop-2-enyl]piperazin-4-ium-1-yl]methanone

> <PUBCHEM_IUPAC_TRADITIONAL_NAME>
[4-[(E)-cinnamyl]piperazin-4-ium-1-yl]-(p-tolyl)methanone

> <PUBCHEM_IUPAC_INCHI>
InChI=1S/C21H24N2O/c1-18-9-11-20(12-10-18)21(24)23-16-14-22(15-17-23)13-5-8-19-6-3-2-4-7-19/h2-12H,13-17H2,1H3/p+1/b8-5+

> <PUBCHEM_IUPAC_INCHIKEY>
YTBDMODSTFNPEC-VMPITWQZSA-O

> <PUBCHEM_XLOGP3>
2.9

> <PUBCHEM_EXACT_MASS>
321.196688

> <PUBCHEM_MOLECULAR_FORMULA>
C21H25N2O+

> <PUBCHEM_MOLECULAR_WEIGHT>
321.436

> <PUBCHEM_OPENEYE_CAN_SMILES>
CC1=CC=C(C=C1)C(=O)N2CC[NH+](CC2)CC=CC3=CC=CC=C3

> <PUBCHEM_OPENEYE_ISO_SMILES>
CC1=CC=C(C=C1)C(=O)N2CC[NH+](CC2)C/C=C/C3=CC=CC=C3

> <PUBCHEM_CACTVS_TPSA>
24.8

> <PUBCHEM_MONOISOTOPIC_WEIGHT>
321.196688

> <PUBCHEM_TOTAL_CHARGE>
1

> <PUBCHEM_HEAVY_ATOM_COUNT>
24

> <PUBCHEM_ATOM_DEF_STEREO_COUNT>
0

> <PUBCHEM_ATOM_UDEF_STEREO_COUNT>
0

> <PUBCHEM_BOND_DEF_STEREO_COUNT>
1

> <PUBCHEM_BOND_UDEF_STEREO_COUNT>
0

> <PUBCHEM_ISOTOPIC_ATOM_COUNT>
0

> <PUBCHEM_COMPONENT_COUNT>
1

> <PUBCHEM_CACTVS_TAUTO_COUNT>
3

> <PUBCHEM_COORDINATE_TYPE>
1
5
255

> <PUBCHEM_BONDANNOTATIONS>
11  13  8
11  14  8
13  16  8
14  17  8
15  19  8
15  20  8
16  18  8
17  18  8
19  22  8
20  23  8
22  24  8
23  24  8

$$$$
5549143
  -OEChem-02051306582D

 60 63  0     0  0  0  0  0  0999 V2000
    4.3211   -0.7924    0.0000 O   0  0  0  0  0  0  0  0  0  0  0  0
    6.2781   -0.3800    0.0000 N   0  3  0  0  0  0  0  0  0  0  0  0
    5.8657    1.5770    0.0000 N   0  3  0  0  0  0  0  0  0  0  0  0
    4.6783   -4.0967    0.0000 N   0  0  0  0  0  0  0  0  0  0  0  0
    7.0224    0.2879    0.0000 C   0  0  0  0  0  0  0  0  0  0  0  0
    5.3276   -0.0693    0.0000 C   0  0  0  0  0  0  0  0  0  0  0  0
    6.8162    1.2664    0.0000 C   0  0  0  0  0  0  0  0  0  0  0  0
    5.1214    0.9092    0.0000 C   0  0  0  0  0  0  0  0  0  0  0  0
    5.9674   -1.3305    0.0000 C   0  0  0  0  0  0  0  0  0  0  0  0
    6.1763    2.5275    0.0000 C   0  0  0  0  0  0  0  0  0  0  0  0
    4.9889   -1.5367    0.0000 C   0  0  0  0  0  0  0  0  0  0  0  0
    7.1548    2.7338    0.0000 C   0  0  0  0  0  0  0  0  0  0  0  0
    4.6783   -2.4872    0.0000 C   0  0  0  0  0  0  0  0  0  0  0  0
    5.2619   -3.2920    0.0000 C   0  0  0  0  0  0  0  0  0  0  0  0
    3.7320   -2.7920    0.0000 C   0  0  0  0  0  0  0  0  0  0  0  0
    3.7320   -3.7920    0.0000 C   0  0  0  0  0  0  0  0  0  0  0  0
    7.4655    3.6843    0.0000 C   0  0  0  0  0  0  0  0  0  0  0  0
    6.2619   -3.2920    0.0000 C   0  0  0  0  0  0  0  0  0  0  0  0
    2.8660   -2.2920    0.0000 C   0  0  0  0  0  0  0  0  0  0  0  0
    2.8660   -4.2920    0.0000 C   0  0  0  0  0  0  0  0  0  0  0  0
    4.9889   -5.0472    0.0000 C   0  0  0  0  0  0  0  0  0  0  0  0
    8.4440    3.8905    0.0000 C   0  0  0  0  0  0  0  0  0  0  0  0
    2.0000   -2.7920    0.0000 C   0  0  0  0  0  0  0  0  0  0  0  0
    2.0000   -3.7920    0.0000 C   0  0  0  0  0  0  0  0  0  0  0  0
    9.1118    3.1462    0.0000 C   0  0  0  0  0  0  0  0  0  0  0  0
    8.7547    4.8410    0.0000 C   0  0  0  0  0  0  0  0  0  0  0  0
   10.0904    3.3524    0.0000 C   0  0  0  0  0  0  0  0  0  0  0  0
    9.7332    5.0472    0.0000 C   0  0  0  0  0  0  0  0  0  0  0  0
   10.4010    4.3029    0.0000 C   0  0  0  0  0  0  0  0  0  0  0  0
    6.9459   -1.1243    0.0000 H   0  0  0  0  0  0  0  0  0  0  0  0
    5.4516    2.0385    0.0000 H   0  0  0  0  0  0  0  0  0  0  0  0
    4.7079   -0.0899    0.0000 H   0  0  0  0  0  0  0  0  0  0  0  0
    5.2402   -0.6831    0.0000 H   0  0  0  0  0  0  0  0  0  0  0  0
    7.3500   -0.2385    0.0000 H   0  0  0  0  0  0  0  0  0  0  0  0
    7.5977    0.5191    0.0000 H   0  0  0  0  0  0  0  0  0  0  0  0
    7.4358    1.2869    0.0000 H   0  0  0  0  0  0  0  0  0  0  0  0
    4.7937    1.4355    0.0000 H   0  0  0  0  0  0  0  0  0  0  0  0
    4.5461    0.6779    0.0000 H   0  0  0  0  0  0  0  0  0  0  0  0
    6.9035    1.8802    0.0000 H   0  0  0  0  0  0  0  0  0  0  0  0
    5.9880   -1.9502    0.0000 H   0  0  0  0  0  0  0  0  0  0  0  0
    6.5812   -1.4179    0.0000 H   0  0  0  0  0  0  0  0  0  0  0  0
    6.1558    3.1472    0.0000 H   0  0  0  0  0  0  0  0  0  0  0  0
    5.5625    2.6149    0.0000 H   0  0  0  0  0  0  0  0  0  0  0  0
    7.5689    2.2723    0.0000 H   0  0  0  0  0  0  0  0  0  0  0  0
    7.0514    4.1457    0.0000 H   0  0  0  0  0  0  0  0  0  0  0  0
    6.2619   -3.9120    0.0000 H   0  0  0  0  0  0  0  0  0  0  0  0
    6.8819   -3.2920    0.0000 H   0  0  0  0  0  0  0  0  0  0  0  0
    6.2619   -2.6720    0.0000 H   0  0  0  0  0  0  0  0  0  0  0  0
    2.8660   -1.6720    0.0000 H   0  0  0  0  0  0  0  0  0  0  0  0
    2.8660   -4.9120    0.0000 H   0  0  0  0  0  0  0  0  0  0  0  0
    4.3996   -5.2398    0.0000 H   0  0  0  0  0  0  0  0  0  0  0  0
    5.1815   -5.6366    0.0000 H   0  0  0  0  0  0  0  0  0  0  0  0
    5.5783   -4.8546    0.0000 H   0  0  0  0  0  0  0  0  0  0  0  0
    1.4631   -2.4820    0.0000 H   0  0  0  0  0  0  0  0  0  0  0  0
    1.4631   -4.1020    0.0000 H   0  0  0  0  0  0  0  0  0  0  0  0
    8.9192    2.5569    0.0000 H   0  0  0  0  0  0  0  0  0  0  0  0
    8.3406    5.3025    0.0000 H   0  0  0  0  0  0  0  0  0  0  0  0
   10.5044    2.8910    0.0000 H   0  0  0  0  0  0  0  0  0  0  0  0
    9.9258    5.6366    0.0000 H   0  0  0  0  0  0  0  0  0  0  0  0
   11.0077    4.4308    0.0000 H   0  0  0  0  0  0  0  0  0  0  0  0
  1 11  2  0  0  0  0
  2  5  1  0  0  0  0
  2  6  1  0  0  0  0
  2  9  1  0  0  0  0
  2 30  1  0  0  0  0
  3  7  1  0  0  0  0
  3  8  1  0  0  0  0
  3 10  1  0  0  0  0
  3 31  1  0  0  0  0
  4 14  1  0  0  0  0
  4 16  1  0  0  0  0
  4 21  1  0  0  0  0
  5  7  1  0  0  0  0
  5 34  1  0  0  0  0
  5 35  1  0  0  0  0
  6  8  1  0  0  0  0
  6 32  1  0  0  0  0
  6 33  1  0  0  0  0
  7 36  1  0  0  0  0
  7 39  1  0  0  0  0
  8 37  1  0  0  0  0
  8 38  1  0  0  0  0
  9 11  1  0  0  0  0
  9 40  1  0  0  0  0
  9 41  1  0  0  0  0
 10 12  1  0  0  0  0
 10 42  1  0  0  0  0
 10 43  1  0  0  0  0
 11 13  1  0  0  0  0
 12 17  2  0  0  0  0
 12 44  1  0  0  0  0
 13 14  2  0  0  0  0
 13 15  1  0  0  0  0
 14 18  1  0  0  0  0
 15 16  1  0  0  0  0
 15 19  2  0  0  0  0
 16 20  2  0  0  0  0
 17 22  1  0  0  0  0
 17 45  1  0  0  0  0
 18 46  1  0  0  0  0
 18 47  1  0  0  0  0
 18 48  1  0  0  0  0
 19 23  1  0  0  0  0
 19 49  1  0  0  0  0
 20 24  1  0  0  0  0
 20 50  1  0  0  0  0
 21 51  1  0  0  0  0
 21 52  1  0  0  0  0
 21 53  1  0  0  0  0
 22 25  2  0  0  0  0
 22 26  1  0  0  0  0
 23 24  2  0  0  0  0
 23 54  1  0  0  0  0
 24 55  1  0  0  0  0
 25 27  1  0  0  0  0
 25 56  1  0  0  0  0
 26 28  2  0  0  0  0
 26 57  1  0  0  0  0
 27 29  2  0  0  0  0
 27 58  1  0  0  0  0
 28 29  1  0  0  0  0
 28 59  1  0  0  0  0
 29 60  1  0  0  0  0
M  CHG  2   2   1   3   1
M  END
> <PUBCHEM_COMPOUND_CID>
5549143

> <PUBCHEM_COMPOUND_CANONICALIZED>
1

> <PUBCHEM_CACTVS_COMPLEXITY>
562

> <PUBCHEM_CACTVS_HBOND_ACCEPTOR>
1

> <PUBCHEM_CACTVS_HBOND_DONOR>
2

> <PUBCHEM_CACTVS_ROTATABLE_BOND>
6

> <PUBCHEM_CACTVS_SUBSKEYS>
AAADceB7IAAAAAAAAAAAAAAAAAAAAWAAAAA8YIAAAAAAAFgB9AAAHgAQAAAADAzBngQywPPMEACoA6RyRACCgCAlAiAI2KG4ZNgIYPrAlbGUIYhgkADIyUcciMCOgAAAAAACAAAAAAAAAAQAAAAAAAAAAA==

> <PUBCHEM_IUPAC_OPENEYE_NAME>
2-[4-[(E)-cinnamyl]piperazine-1,4-diium-1-yl]-1-(1,2-dimethylindol-3-yl)ethanone

> <PUBCHEM_IUPAC_CAS_NAME>
1-(1,2-dimethyl-3-indolyl)-2-[4-[(E)-3-phenylprop-2-enyl]-1-piperazine-1,4-diiumyl]ethanone

> <PUBCHEM_IUPAC_NAME>
1-(1,2-dimethylindol-3-yl)-2-[4-[(E)-3-phenylprop-2-enyl]piperazine-1,4-diium-1-yl]ethanone

> <PUBCHEM_IUPAC_SYSTEMATIC_NAME>
1-(1,2-dimethylindol-3-yl)-2-[4-[(E)-3-phenylprop-2-enyl]piperazine-1,4-diium-1-yl]ethanone

> <PUBCHEM_IUPAC_TRADITIONAL_NAME>
2-[4-[(E)-cinnamyl]piperazine-1,4-diium-1-yl]-1-(1,2-dimethylindol-3-yl)ethanone

> <PUBCHEM_IUPAC_INCHI>
InChI=1S/C25H29N3O/c1-20-25(22-12-6-7-13-23(22)26(20)2)24(29)19-28-17-15-27(16-18-28)14-8-11-21-9-4-3-5-10-21/h3-13H,14-19H2,1-2H3/p+2/b11-8+

> <PUBCHEM_IUPAC_INCHIKEY>
HHDIMQVVRLEDCH-DHZHZOJOSA-P

> <PUBCHEM_XLOGP3>
4

> <PUBCHEM_EXACT_MASS>
389.246713

> <PUBCHEM_MOLECULAR_FORMULA>
C25H31N3O+2

> <PUBCHEM_MOLECULAR_WEIGHT>
389.53314

> <PUBCHEM_OPENEYE_CAN_SMILES>
CC1=C(C2=CC=CC=C2N1C)C(=O)C[NH+]3CC[NH+](CC3)CC=CC4=CC=CC=C4

> <PUBCHEM_OPENEYE_ISO_SMILES>
CC1=C(C2=CC=CC=C2N1C)C(=O)C[NH+]3CC[NH+](CC3)C/C=C/C4=CC=CC=C4

> <PUBCHEM_CACTVS_TPSA>
30.9

> <PUBCHEM_MONOISOTOPIC_WEIGHT>
389.246713

> <PUBCHEM_TOTAL_CHARGE>
2

> <PUBCHEM_HEAVY_ATOM_COUNT>
29

> <PUBCHEM_ATOM_DEF_STEREO_COUNT>
0

> <PUBCHEM_ATOM_UDEF_STEREO_COUNT>
0

> <PUBCHEM_BOND_DEF_STEREO_COUNT>
1

> <PUBCHEM_BOND_UDEF_STEREO_COUNT>
0

> <PUBCHEM_ISOTOPIC_ATOM_COUNT>
0

> <PUBCHEM_COMPONENT_COUNT>
1

> <PUBCHEM_CACTVS_TAUTO_COUNT>
2

> <PUBCHEM_COORDINATE_TYPE>
1
5
255

> <PUBCHEM_BONDANNOTATIONS>
13  14  8
13  15  8
15  16  8
15  19  8
16  20  8
19  23  8
20  24  8
22  25  8
22  26  8
23  24  8
25  27  8
26  28  8
27  29  8
28  29  8
4  14  8
4  16  8

$$$$
