38655803
  -OEChem-03061303102D

 36 38  0     0  0  0  0  0  0999 V2000
    6.6353   -0.7923    0.0000 O   0  0  0  0  0  0  0  0  0  0  0  0
    6.2781    0.9025    0.0000 N   0  0  0  0  0  0  0  0  0  0  0  0
    4.6783   -2.8142    0.0000 N   0  0  0  0  0  0  0  0  0  0  0  0
    7.5673    2.0593    0.0000 C   0  0  0  0  0  0  0  0  0  0  0  0
    8.4591    2.5117    0.0000 C   0  0  0  0  0  0  0  0  0  0  0  0
    7.1148    2.9511    0.0000 C   0  0  0  0  0  0  0  0  0  0  0  0
    8.0066    3.4035    0.0000 C   0  0  0  0  0  0  0  0  0  0  0  0
    7.2566    1.1087    0.0000 C   0  0  0  0  0  0  0  0  0  0  0  0
    5.9674   -0.0480    0.0000 C   0  0  0  0  0  0  0  0  0  0  0  0
    4.9889   -0.2542    0.0000 C   0  0  0  0  0  0  0  0  0  0  0  0
    4.6783   -1.2047    0.0000 C   0  0  0  0  0  0  0  0  0  0  0  0
    3.7320   -1.5095    0.0000 C   0  0  0  0  0  0  0  0  0  0  0  0
    3.7320   -2.5095    0.0000 C   0  0  0  0  0  0  0  0  0  0  0  0
    5.2619   -2.0095    0.0000 C   0  0  0  0  0  0  0  0  0  0  0  0
    2.8660   -1.0095    0.0000 C   0  0  0  0  0  0  0  0  0  0  0  0
    2.8660   -3.0095    0.0000 C   0  0  0  0  0  0  0  0  0  0  0  0
    2.0000   -1.5095    0.0000 C   0  0  0  0  0  0  0  0  0  0  0  0
    2.0000   -2.5095    0.0000 C   0  0  0  0  0  0  0  0  0  0  0  0
    6.9491    2.0117    0.0000 H   0  0  0  0  0  0  0  0  0  0  0  0
    8.7396    1.9588    0.0000 H   0  0  0  0  0  0  0  0  0  0  0  0
    9.0120    2.7922    0.0000 H   0  0  0  0  0  0  0  0  0  0  0  0
    6.8343    3.5040    0.0000 H   0  0  0  0  0  0  0  0  0  0  0  0
    6.5619    2.6706    0.0000 H   0  0  0  0  0  0  0  0  0  0  0  0
    8.5595    3.6840    0.0000 H   0  0  0  0  0  0  0  0  0  0  0  0
    7.7261    3.9564    0.0000 H   0  0  0  0  0  0  0  0  0  0  0  0
    7.2772    0.4891    0.0000 H   0  0  0  0  0  0  0  0  0  0  0  0
    7.8704    1.0214    0.0000 H   0  0  0  0  0  0  0  0  0  0  0  0
    5.8640    1.3640    0.0000 H   0  0  0  0  0  0  0  0  0  0  0  0
    4.9684    0.3655    0.0000 H   0  0  0  0  0  0  0  0  0  0  0  0
    4.3751   -0.1669    0.0000 H   0  0  0  0  0  0  0  0  0  0  0  0
    5.8819   -2.0095    0.0000 H   0  0  0  0  0  0  0  0  0  0  0  0
    4.8709   -3.4035    0.0000 H   0  0  0  0  0  0  0  0  0  0  0  0
    2.8660   -0.3895    0.0000 H   0  0  0  0  0  0  0  0  0  0  0  0
    2.8660   -3.6295    0.0000 H   0  0  0  0  0  0  0  0  0  0  0  0
    1.4631   -1.1995    0.0000 H   0  0  0  0  0  0  0  0  0  0  0  0
    1.4631   -2.8195    0.0000 H   0  0  0  0  0  0  0  0  0  0  0  0
  1  9  2  0  0  0  0
  2  8  1  0  0  0  0
  2  9  1  0  0  0  0
  2 28  1  0  0  0  0
  3 13  1  0  0  0  0
  3 14  1  0  0  0  0
  3 32  1  0  0  0  0
  4  5  1  0  0  0  0
  4  6  1  0  0  0  0
  4  8  1  0  0  0  0
  4 19  1  0  0  0  0
  5  7  1  0  0  0  0
  5 20  1  0  0  0  0
  5 21  1  0  0  0  0
  6  7  1  0  0  0  0
  6 22  1  0  0  0  0
  6 23  1  0  0  0  0
  7 24  1  0  0  0  0
  7 25  1  0  0  0  0
  8 26  1  0  0  0  0
  8 27  1  0  0  0  0
  9 10  1  0  0  0  0
 10 11  1  0  0  0  0
 10 29  1  0  0  0  0
 10 30  1  0  0  0  0
 11 12  1  0  0  0  0
 11 14  2  0  0  0  0
 12 13  1  0  0  0  0
 12 15  2  0  0  0  0
 13 16  2  0  0  0  0
 14 31  1  0  0  0  0
 15 17  1  0  0  0  0
 15 33  1  0  0  0  0
 16 18  1  0  0  0  0
 16 34  1  0  0  0  0
 17 18  2  0  0  0  0
 17 35  1  0  0  0  0
 18 36  1  0  0  0  0
M  END
> <PUBCHEM_COMPOUND_CID>
38655803

> <PUBCHEM_COMPOUND_CANONICALIZED>
1

> <PUBCHEM_CACTVS_COMPLEXITY>
301

> <PUBCHEM_CACTVS_HBOND_ACCEPTOR>
1

> <PUBCHEM_CACTVS_HBOND_DONOR>
2

> <PUBCHEM_CACTVS_ROTATABLE_BOND>
4

> <PUBCHEM_CACTVS_SUBSKEYS>
AAADceBzIAAAAAAAAAAAAAAAAABgAWAAAAAwAAAAAAAAAFgB8AAAHgAQAAAADQjBngQ8wPLJkACoAzV3VACCgCAxAiAI2aE4ZJgIIPLAlZGEIAhglgDIyAccicCegAAAAAACAAAAAAAAAAQAAAAAAAAAAA==

> <PUBCHEM_IUPAC_OPENEYE_NAME>
N-(cyclobutylmethyl)-2-(1H-indol-3-yl)acetamide

> <PUBCHEM_IUPAC_CAS_NAME>
N-(cyclobutylmethyl)-2-(1H-indol-3-yl)acetamide

> <PUBCHEM_IUPAC_NAME>
N-(cyclobutylmethyl)-2-(1H-indol-3-yl)acetamide

> <PUBCHEM_IUPAC_SYSTEMATIC_NAME>
N-(cyclobutylmethyl)-2-(1H-indol-3-yl)ethanamide

> <PUBCHEM_IUPAC_TRADITIONAL_NAME>
N-(cyclobutylmethyl)-2-(1H-indol-3-yl)acetamide

> <PUBCHEM_IUPAC_INCHI>
InChI=1S/C15H18N2O/c18-15(17-9-11-4-3-5-11)8-12-10-16-14-7-2-1-6-13(12)14/h1-2,6-7,10-11,16H,3-5,8-9H2,(H,17,18)

> <PUBCHEM_IUPAC_INCHIKEY>
DQJUEJMOXDXYIU-UHFFFAOYSA-N

> <PUBCHEM_XLOGP3>
2.4

> <PUBCHEM_EXACT_MASS>
242.141913

> <PUBCHEM_MOLECULAR_FORMULA>
C15H18N2O

> <PUBCHEM_MOLECULAR_WEIGHT>
242.31622

> <PUBCHEM_OPENEYE_CAN_SMILES>
C1CC(C1)CNC(=O)CC2=CNC3=CC=CC=C32

> <PUBCHEM_OPENEYE_ISO_SMILES>
C1CC(C1)CNC(=O)CC2=CNC3=CC=CC=C32

> <PUBCHEM_CACTVS_TPSA>
44.9

> <PUBCHEM_MONOISOTOPIC_WEIGHT>
242.141913

> <PUBCHEM_TOTAL_CHARGE>
0

> <PUBCHEM_HEAVY_ATOM_COUNT>
18

> <PUBCHEM_ATOM_DEF_STEREO_COUNT>
0

> <PUBCHEM_ATOM_UDEF_STEREO_COUNT>
0

> <PUBCHEM_BOND_DEF_STEREO_COUNT>
0

> <PUBCHEM_BOND_UDEF_STEREO_COUNT>
0

> <PUBCHEM_ISOTOPIC_ATOM_COUNT>
0

> <PUBCHEM_COMPONENT_COUNT>
1

> <PUBCHEM_CACTVS_TAUTO_COUNT>
2

> <PUBCHEM_COORDINATE_TYPE>
1
5
255

> <PUBCHEM_BONDANNOTATIONS>
11  12  8
11  14  8
12  13  8
12  15  8
13  16  8
15  17  8
16  18  8
17  18  8
3  13  8
3  14  8

$$$$
38655908
  -OEChem-03061303102D

 39 41  0     0  0  0  0  0  0999 V2000
    5.6103    1.7970    0.0000 O   0  0  0  0  0  0  0  0  0  0  0  0
    7.2566    1.2589    0.0000 N   0  0  0  0  0  0  0  0  0  0  0  0
    4.6783   -2.6640    0.0000 N   0  0  0  0  0  0  0  0  0  0  0  0
    8.5458    2.4156    0.0000 C   0  0  0  0  0  0  0  0  0  0  0  0
    9.3835    1.8696    0.0000 C   0  0  0  0  0  0  0  0  0  0  0  0
    9.0919    3.2534    0.0000 C   0  0  0  0  0  0  0  0  0  0  0  0
    9.9296    2.7073    0.0000 C   0  0  0  0  0  0  0  0  0  0  0  0
    7.5673    2.2094    0.0000 C   0  0  0  0  0  0  0  0  0  0  0  0
    6.2781    1.0527    0.0000 C   0  0  0  0  0  0  0  0  0  0  0  0
    5.9674    0.1022    0.0000 C   0  0  0  0  0  0  0  0  0  0  0  0
    4.9889   -0.1041    0.0000 C   0  0  0  0  0  0  0  0  0  0  0  0
    4.6783   -1.0546    0.0000 C   0  0  0  0  0  0  0  0  0  0  0  0
    3.7320   -1.3593    0.0000 C   0  0  0  0  0  0  0  0  0  0  0  0
    3.7320   -2.3593    0.0000 C   0  0  0  0  0  0  0  0  0  0  0  0
    5.2619   -1.8593    0.0000 C   0  0  0  0  0  0  0  0  0  0  0  0
    2.8660   -0.8593    0.0000 C   0  0  0  0  0  0  0  0  0  0  0  0
    2.8660   -2.8593    0.0000 C   0  0  0  0  0  0  0  0  0  0  0  0
    2.0000   -1.3593    0.0000 C   0  0  0  0  0  0  0  0  0  0  0  0
    2.0000   -2.3593    0.0000 C   0  0  0  0  0  0  0  0  0  0  0  0
    8.4317    1.8062    0.0000 H   0  0  0  0  0  0  0  0  0  0  0  0
    9.4304    3.7728    0.0000 H   0  0  0  0  0  0  0  0  0  0  0  0
    8.5725    3.5919    0.0000 H   0  0  0  0  0  0  0  0  0  0  0  0
    9.0449    1.3502    0.0000 H   0  0  0  0  0  0  0  0  0  0  0  0
    9.9029    1.5310    0.0000 H   0  0  0  0  0  0  0  0  0  0  0  0
   10.4490    2.3687    0.0000 H   0  0  0  0  0  0  0  0  0  0  0  0
   10.2682    3.2267    0.0000 H   0  0  0  0  0  0  0  0  0  0  0  0
    7.5467    2.8291    0.0000 H   0  0  0  0  0  0  0  0  0  0  0  0
    6.9534    2.2968    0.0000 H   0  0  0  0  0  0  0  0  0  0  0  0
    7.6707    0.7974    0.0000 H   0  0  0  0  0  0  0  0  0  0  0  0
    5.9880   -0.5175    0.0000 H   0  0  0  0  0  0  0  0  0  0  0  0
    6.5812    0.0148    0.0000 H   0  0  0  0  0  0  0  0  0  0  0  0
    4.9684    0.5156    0.0000 H   0  0  0  0  0  0  0  0  0  0  0  0
    4.3751   -0.0167    0.0000 H   0  0  0  0  0  0  0  0  0  0  0  0
    5.8819   -1.8593    0.0000 H   0  0  0  0  0  0  0  0  0  0  0  0
    4.8709   -3.2534    0.0000 H   0  0  0  0  0  0  0  0  0  0  0  0
    2.8660   -0.2393    0.0000 H   0  0  0  0  0  0  0  0  0  0  0  0
    2.8660   -3.4793    0.0000 H   0  0  0  0  0  0  0  0  0  0  0  0
    1.4631   -1.0493    0.0000 H   0  0  0  0  0  0  0  0  0  0  0  0
    1.4631   -2.6693    0.0000 H   0  0  0  0  0  0  0  0  0  0  0  0
  1  9  2  0  0  0  0
  2  8  1  0  0  0  0
  2  9  1  0  0  0  0
  2 29  1  0  0  0  0
  3 14  1  0  0  0  0
  3 15  1  0  0  0  0
  3 35  1  0  0  0  0
  4  5  1  0  0  0  0
  4  6  1  0  0  0  0
  4  8  1  0  0  0  0
  4 20  1  0  0  0  0
  5  7  1  0  0  0  0
  5 23  1  0  0  0  0
  5 24  1  0  0  0  0
  6  7  1  0  0  0  0
  6 21  1  0  0  0  0
  6 22  1  0  0  0  0
  7 25  1  0  0  0  0
  7 26  1  0  0  0  0
  8 27  1  0  0  0  0
  8 28  1  0  0  0  0
  9 10  1  0  0  0  0
 10 11  1  0  0  0  0
 10 30  1  0  0  0  0
 10 31  1  0  0  0  0
 11 12  1  0  0  0  0
 11 32  1  0  0  0  0
 11 33  1  0  0  0  0
 12 13  1  0  0  0  0
 12 15  2  0  0  0  0
 13 14  1  0  0  0  0
 13 16  2  0  0  0  0
 14 17  2  0  0  0  0
 15 34  1  0  0  0  0
 16 18  1  0  0  0  0
 16 36  1  0  0  0  0
 17 19  1  0  0  0  0
 17 37  1  0  0  0  0
 18 19  2  0  0  0  0
 18 38  1  0  0  0  0
 19 39  1  0  0  0  0
M  END
> <PUBCHEM_COMPOUND_CID>
38655908

> <PUBCHEM_COMPOUND_CANONICALIZED>
1

> <PUBCHEM_CACTVS_COMPLEXITY>
314

> <PUBCHEM_CACTVS_HBOND_ACCEPTOR>
1

> <PUBCHEM_CACTVS_HBOND_DONOR>
2

> <PUBCHEM_CACTVS_ROTATABLE_BOND>
5

> <PUBCHEM_CACTVS_SUBSKEYS>
AAADceB7IAAAAAAAAAAAAAAAAABgAWAAAAAwAAAAAAAAAFgB8AAAHgAQAAAADQjBngQ8wPLJkACoAzV3VACCgCAxAiAI2aE4ZJgIIPLAkZGEIAhglgDIyAcYicCOgAAAAAACAAAAAAAAAAQAAAAAAAAAAA==

> <PUBCHEM_IUPAC_OPENEYE_NAME>
N-(cyclobutylmethyl)-3-(1H-indol-3-yl)propanamide

> <PUBCHEM_IUPAC_CAS_NAME>
N-(cyclobutylmethyl)-3-(1H-indol-3-yl)propanamide

> <PUBCHEM_IUPAC_NAME>
N-(cyclobutylmethyl)-3-(1H-indol-3-yl)propanamide

> <PUBCHEM_IUPAC_SYSTEMATIC_NAME>
N-(cyclobutylmethyl)-3-(1H-indol-3-yl)propanamide

> <PUBCHEM_IUPAC_TRADITIONAL_NAME>
N-(cyclobutylmethyl)-3-(1H-indol-3-yl)propionamide

> <PUBCHEM_IUPAC_INCHI>
InChI=1S/C16H20N2O/c19-16(18-10-12-4-3-5-12)9-8-13-11-17-15-7-2-1-6-14(13)15/h1-2,6-7,11-12,17H,3-5,8-10H2,(H,18,19)

> <PUBCHEM_IUPAC_INCHIKEY>
YCXUZTYHVADFSM-UHFFFAOYSA-N

> <PUBCHEM_XLOGP3>
2.8

> <PUBCHEM_EXACT_MASS>
256.157563

> <PUBCHEM_MOLECULAR_FORMULA>
C16H20N2O

> <PUBCHEM_MOLECULAR_WEIGHT>
256.3428

> <PUBCHEM_OPENEYE_CAN_SMILES>
C1CC(C1)CNC(=O)CCC2=CNC3=CC=CC=C32

> <PUBCHEM_OPENEYE_ISO_SMILES>
C1CC(C1)CNC(=O)CCC2=CNC3=CC=CC=C32

> <PUBCHEM_CACTVS_TPSA>
44.9

> <PUBCHEM_MONOISOTOPIC_WEIGHT>
256.157563

> <PUBCHEM_TOTAL_CHARGE>
0

> <PUBCHEM_HEAVY_ATOM_COUNT>
19

> <PUBCHEM_ATOM_DEF_STEREO_COUNT>
0

> <PUBCHEM_ATOM_UDEF_STEREO_COUNT>
0

> <PUBCHEM_BOND_DEF_STEREO_COUNT>
0

> <PUBCHEM_BOND_UDEF_STEREO_COUNT>
0

> <PUBCHEM_ISOTOPIC_ATOM_COUNT>
0

> <PUBCHEM_COMPONENT_COUNT>
1

> <PUBCHEM_CACTVS_TAUTO_COUNT>
2

> <PUBCHEM_COORDINATE_TYPE>
1
5
255

> <PUBCHEM_BONDANNOTATIONS>
12  13  8
12  15  8
13  14  8
13  16  8
14  17  8
16  18  8
17  19  8
18  19  8
3  14  8
3  15  8

$$$$
