41880815
  -OEChem-02201303132D

 55 58  0     0  0  0  0  0  0999 V2000
    5.6103    1.3282    0.0000 O   0  0  0  0  0  0  0  0  0  0  0  0
    7.2566    0.7901    0.0000 N   0  0  0  0  0  0  0  0  0  0  0  0
    4.6783   -3.1329    0.0000 N   0  0  0  0  0  0  0  0  0  0  0  0
    9.2136    1.2025    0.0000 C   0  0  0  0  0  0  0  0  0  0  0  0
    8.9030    0.2520    0.0000 C   0  0  0  0  0  0  0  0  0  0  0  0
    8.5458    1.9468    0.0000 C   0  0  0  0  0  0  0  0  0  0  0  0
    7.9245    0.0458    0.0000 C   0  0  0  0  0  0  0  0  0  0  0  0
    7.5673    1.7406    0.0000 C   0  0  0  0  0  0  0  0  0  0  0  0
   10.1921    1.4087    0.0000 C   0  0  0  0  0  0  0  0  0  0  0  0
   10.5028    2.3592    0.0000 C   0  0  0  0  0  0  0  0  0  0  0  0
    6.2781    0.5838    0.0000 C   0  0  0  0  0  0  0  0  0  0  0  0
    5.9674   -0.3667    0.0000 C   0  0  0  0  0  0  0  0  0  0  0  0
   11.4813    2.5655    0.0000 C   0  0  0  0  0  0  0  0  0  0  0  0
    4.9889   -0.5729    0.0000 C   0  0  0  0  0  0  0  0  0  0  0  0
    4.6783   -1.5234    0.0000 C   0  0  0  0  0  0  0  0  0  0  0  0
   11.7920    3.5160    0.0000 C   0  0  0  0  0  0  0  0  0  0  0  0
   12.1491    1.8212    0.0000 C   0  0  0  0  0  0  0  0  0  0  0  0
    3.7321   -1.8281    0.0000 C   0  0  0  0  0  0  0  0  0  0  0  0
    5.2619   -2.3281    0.0000 C   0  0  0  0  0  0  0  0  0  0  0  0
    3.7321   -2.8281    0.0000 C   0  0  0  0  0  0  0  0  0  0  0  0
   12.7705    3.7222    0.0000 C   0  0  0  0  0  0  0  0  0  0  0  0
   13.1276    2.0274    0.0000 C   0  0  0  0  0  0  0  0  0  0  0  0
    2.8660   -1.3281    0.0000 C   0  0  0  0  0  0  0  0  0  0  0  0
   13.4383    2.9779    0.0000 C   0  0  0  0  0  0  0  0  0  0  0  0
    2.8660   -3.3281    0.0000 C   0  0  0  0  0  0  0  0  0  0  0  0
    2.0000   -1.8281    0.0000 C   0  0  0  0  0  0  0  0  0  0  0  0
    2.0000   -2.8281    0.0000 C   0  0  0  0  0  0  0  0  0  0  0  0
    9.6277    0.7410    0.0000 H   0  0  0  0  0  0  0  0  0  0  0  0
    8.9235   -0.3677    0.0000 H   0  0  0  0  0  0  0  0  0  0  0  0
    9.5168    0.1646    0.0000 H   0  0  0  0  0  0  0  0  0  0  0  0
    9.0721    2.2744    0.0000 H   0  0  0  0  0  0  0  0  0  0  0  0
    8.3145    2.5221    0.0000 H   0  0  0  0  0  0  0  0  0  0  0  0
    7.3981   -0.2819    0.0000 H   0  0  0  0  0  0  0  0  0  0  0  0
    8.1557   -0.5295    0.0000 H   0  0  0  0  0  0  0  0  0  0  0  0
    7.5467    2.3602    0.0000 H   0  0  0  0  0  0  0  0  0  0  0  0
    6.9535    1.8279    0.0000 H   0  0  0  0  0  0  0  0  0  0  0  0
   10.2127    0.7891    0.0000 H   0  0  0  0  0  0  0  0  0  0  0  0
   10.8059    1.3214    0.0000 H   0  0  0  0  0  0  0  0  0  0  0  0
   10.4822    2.9789    0.0000 H   0  0  0  0  0  0  0  0  0  0  0  0
    9.8890    2.4466    0.0000 H   0  0  0  0  0  0  0  0  0  0  0  0
    5.9880   -0.9863    0.0000 H   0  0  0  0  0  0  0  0  0  0  0  0
    6.5813   -0.4540    0.0000 H   0  0  0  0  0  0  0  0  0  0  0  0
    4.9684    0.0468    0.0000 H   0  0  0  0  0  0  0  0  0  0  0  0
    4.3751   -0.4855    0.0000 H   0  0  0  0  0  0  0  0  0  0  0  0
   11.3779    3.9775    0.0000 H   0  0  0  0  0  0  0  0  0  0  0  0
   11.9565    1.2318    0.0000 H   0  0  0  0  0  0  0  0  0  0  0  0
    5.8819   -2.3281    0.0000 H   0  0  0  0  0  0  0  0  0  0  0  0
    4.8709   -3.7222    0.0000 H   0  0  0  0  0  0  0  0  0  0  0  0
   12.9631    4.3115    0.0000 H   0  0  0  0  0  0  0  0  0  0  0  0
   13.5417    1.5659    0.0000 H   0  0  0  0  0  0  0  0  0  0  0  0
    2.8660   -0.7081    0.0000 H   0  0  0  0  0  0  0  0  0  0  0  0
   14.0450    3.1058    0.0000 H   0  0  0  0  0  0  0  0  0  0  0  0
    2.8660   -3.9481    0.0000 H   0  0  0  0  0  0  0  0  0  0  0  0
    1.4631   -1.5181    0.0000 H   0  0  0  0  0  0  0  0  0  0  0  0
    1.4631   -3.1381    0.0000 H   0  0  0  0  0  0  0  0  0  0  0  0
  1 11  2  0  0  0  0
  2  7  1  0  0  0  0
  2  8  1  0  0  0  0
  2 11  1  0  0  0  0
  3 19  1  0  0  0  0
  3 20  1  0  0  0  0
  3 48  1  0  0  0  0
  4  5  1  0  0  0  0
  4  6  1  0  0  0  0
  4  9  1  0  0  0  0
  4 28  1  0  0  0  0
  5  7  1  0  0  0  0
  5 29  1  0  0  0  0
  5 30  1  0  0  0  0
  6  8  1  0  0  0  0
  6 31  1  0  0  0  0
  6 32  1  0  0  0  0
  7 33  1  0  0  0  0
  7 34  1  0  0  0  0
  8 35  1  0  0  0  0
  8 36  1  0  0  0  0
  9 10  1  0  0  0  0
  9 37  1  0  0  0  0
  9 38  1  0  0  0  0
 10 13  1  0  0  0  0
 10 39  1  0  0  0  0
 10 40  1  0  0  0  0
 11 12  1  0  0  0  0
 12 14  1  0  0  0  0
 12 41  1  0  0  0  0
 12 42  1  0  0  0  0
 13 16  2  0  0  0  0
 13 17  1  0  0  0  0
 14 15  1  0  0  0  0
 14 43  1  0  0  0  0
 14 44  1  0  0  0  0
 15 18  1  0  0  0  0
 15 19  2  0  0  0  0
 16 21  1  0  0  0  0
 16 45  1  0  0  0  0
 17 22  2  0  0  0  0
 17 46  1  0  0  0  0
 18 20  1  0  0  0  0
 18 23  2  0  0  0  0
 19 47  1  0  0  0  0
 20 25  2  0  0  0  0
 21 24  2  0  0  0  0
 21 49  1  0  0  0  0
 22 24  1  0  0  0  0
 22 50  1  0  0  0  0
 23 26  1  0  0  0  0
 23 51  1  0  0  0  0
 24 52  1  0  0  0  0
 25 27  1  0  0  0  0
 25 53  1  0  0  0  0
 26 27  2  0  0  0  0
 26 54  1  0  0  0  0
 27 55  1  0  0  0  0
M  END
> <PUBCHEM_COMPOUND_CID>
41880815

> <PUBCHEM_COMPOUND_CANONICALIZED>
1

> <PUBCHEM_CACTVS_COMPLEXITY>
465

> <PUBCHEM_CACTVS_HBOND_ACCEPTOR>
1

> <PUBCHEM_CACTVS_HBOND_DONOR>
1

> <PUBCHEM_CACTVS_ROTATABLE_BOND>
6

> <PUBCHEM_CACTVS_SUBSKEYS>
AAADceB7IAAAAAAAAAAAAAAAAAAAAWAAAAA8YIAAAAAAAFgB9AAAHgAQAAAADQjBngQ8wPPJkACoAzV3VACCgCAxAiAI2aE4ZJgIIPLAkZGEIAhglgDIyAcYicCOgAAAAAACAAAAAAAAAAQAAAAAAAAAAA==

> <PUBCHEM_IUPAC_OPENEYE_NAME>
3-(1H-indol-3-yl)-1-[4-(2-phenylethyl)-1-piperidyl]propan-1-one

> <PUBCHEM_IUPAC_CAS_NAME>
3-(1H-indol-3-yl)-1-[4-(2-phenylethyl)-1-piperidinyl]-1-propanone

> <PUBCHEM_IUPAC_NAME>
3-(1H-indol-3-yl)-1-[4-(2-phenylethyl)piperidin-1-yl]propan-1-one

> <PUBCHEM_IUPAC_SYSTEMATIC_NAME>
3-(1H-indol-3-yl)-1-[4-(2-phenylethyl)piperidin-1-yl]propan-1-one

> <PUBCHEM_IUPAC_TRADITIONAL_NAME>
3-(1H-indol-3-yl)-1-(4-phenethylpiperidino)propan-1-one

> <PUBCHEM_IUPAC_INCHI>
InChI=1S/C24H28N2O/c27-24(13-12-21-18-25-23-9-5-4-8-22(21)23)26-16-14-20(15-17-26)11-10-19-6-2-1-3-7-19/h1-9,18,20,25H,10-17H2

> <PUBCHEM_IUPAC_INCHIKEY>
JDYDUYXYMPWPEQ-UHFFFAOYSA-N

> <PUBCHEM_XLOGP3>
4.9

> <PUBCHEM_EXACT_MASS>
360.220164

> <PUBCHEM_MOLECULAR_FORMULA>
C24H28N2O

> <PUBCHEM_MOLECULAR_WEIGHT>
360.49192

> <PUBCHEM_OPENEYE_CAN_SMILES>
C1CN(CCC1CCC2=CC=CC=C2)C(=O)CCC3=CNC4=CC=CC=C43

> <PUBCHEM_OPENEYE_ISO_SMILES>
C1CN(CCC1CCC2=CC=CC=C2)C(=O)CCC3=CNC4=CC=CC=C43

> <PUBCHEM_CACTVS_TPSA>
36.1

> <PUBCHEM_MONOISOTOPIC_WEIGHT>
360.220164

> <PUBCHEM_TOTAL_CHARGE>
0

> <PUBCHEM_HEAVY_ATOM_COUNT>
27

> <PUBCHEM_ATOM_DEF_STEREO_COUNT>
0

> <PUBCHEM_ATOM_UDEF_STEREO_COUNT>
0

> <PUBCHEM_BOND_DEF_STEREO_COUNT>
0

> <PUBCHEM_BOND_UDEF_STEREO_COUNT>
0

> <PUBCHEM_ISOTOPIC_ATOM_COUNT>
0

> <PUBCHEM_COMPONENT_COUNT>
1

> <PUBCHEM_CACTVS_TAUTO_COUNT>
1

> <PUBCHEM_COORDINATE_TYPE>
1
5
255

> <PUBCHEM_BONDANNOTATIONS>
13  16  8
13  17  8
15  18  8
15  19  8
16  21  8
17  22  8
18  20  8
18  23  8
20  25  8
21  24  8
22  24  8
23  26  8
25  27  8
26  27  8
3  19  8
3  20  8

$$$$
