29155316
  -OEChem-12041211392D

 36 38  0     0  0  0  0  0  0999 V2000
    4.3520   -0.5011    0.0000 N   0  0  0  0  0  0  0  0  0  0  0  0
    2.6200    0.4989    0.0000 N   0  3  0  0  0  0  0  0  0  0  0  0
    3.4860   -1.0011    0.0000 C   0  0  0  0  0  0  0  0  0  0  0  0
    4.3520    0.4989    0.0000 C   0  0  0  0  0  0  0  0  0  0  0  0
    2.6200   -0.5011    0.0000 C   0  0  0  0  0  0  0  0  0  0  0  0
    3.4860    0.9989    0.0000 C   0  0  0  0  0  0  0  0  0  0  0  0
    5.2181   -1.0011    0.0000 C   0  0  0  0  0  0  0  0  0  0  0  0
    6.0841   -0.5011    0.0000 C   0  0  0  0  0  0  0  0  0  0  0  0
    6.9501   -1.0011    0.0000 C   0  0  0  0  0  0  0  0  0  0  0  0
    6.0841    0.4989    0.0000 C   0  0  0  0  0  0  0  0  0  0  0  0
    7.8162   -0.5011    0.0000 C   0  0  0  0  0  0  0  0  0  0  0  0
    7.8162    0.4989    0.0000 C   0  0  0  0  0  0  0  0  0  0  0  0
    6.9501    0.9989    0.0000 C   0  0  0  0  0  0  0  0  0  0  0  0
    8.7101   -1.0358    0.0000 C   0  0  0  0  0  0  0  0  0  0  0  0
    8.7101    1.0335    0.0000 C   0  0  0  0  0  0  0  0  0  0  0  0
    9.6162   -0.5220    0.0000 C   0  0  0  0  0  0  0  0  0  0  0  0
    9.6162    0.5197    0.0000 C   0  0  0  0  0  0  0  0  0  0  0  0
    3.0875   -1.4761    0.0000 H   0  0  0  0  0  0  0  0  0  0  0  0
    3.8846   -1.4761    0.0000 H   0  0  0  0  0  0  0  0  0  0  0  0
    4.9626    0.3912    0.0000 H   0  0  0  0  0  0  0  0  0  0  0  0
    4.5641    1.0815    0.0000 H   0  0  0  0  0  0  0  0  0  0  0  0
    2.0094   -0.3935    0.0000 H   0  0  0  0  0  0  0  0  0  0  0  0
    2.4080   -1.0838    0.0000 H   0  0  0  0  0  0  0  0  0  0  0  0
    3.8846    1.4738    0.0000 H   0  0  0  0  0  0  0  0  0  0  0  0
    3.0875    1.4738    0.0000 H   0  0  0  0  0  0  0  0  0  0  0  0
    2.0000    0.4989    0.0000 H   0  0  0  0  0  0  0  0  0  0  0  0
    2.3100    1.0358    0.0000 H   0  0  0  0  0  0  0  0  0  0  0  0
    4.8195   -1.4761    0.0000 H   0  0  0  0  0  0  0  0  0  0  0  0
    5.6166   -1.4761    0.0000 H   0  0  0  0  0  0  0  0  0  0  0  0
    6.9501   -1.6211    0.0000 H   0  0  0  0  0  0  0  0  0  0  0  0
    5.5472    0.8089    0.0000 H   0  0  0  0  0  0  0  0  0  0  0  0
    6.9501    1.6189    0.0000 H   0  0  0  0  0  0  0  0  0  0  0  0
    8.7029   -1.6558    0.0000 H   0  0  0  0  0  0  0  0  0  0  0  0
    8.7029    1.6535    0.0000 H   0  0  0  0  0  0  0  0  0  0  0  0
   10.1519   -0.8340    0.0000 H   0  0  0  0  0  0  0  0  0  0  0  0
   10.1519    0.8317    0.0000 H   0  0  0  0  0  0  0  0  0  0  0  0
  1  3  1  0  0  0  0
  1  4  1  0  0  0  0
  1  7  1  0  0  0  0
  2  5  1  0  0  0  0
  2  6  1  0  0  0  0
  2 26  1  0  0  0  0
  2 27  1  0  0  0  0
  3  5  1  0  0  0  0
  3 18  1  0  0  0  0
  3 19  1  0  0  0  0
  4  6  1  0  0  0  0
  4 20  1  0  0  0  0
  4 21  1  0  0  0  0
  5 22  1  0  0  0  0
  5 23  1  0  0  0  0
  6 24  1  0  0  0  0
  6 25  1  0  0  0  0
  7  8  1  0  0  0  0
  7 28  1  0  0  0  0
  7 29  1  0  0  0  0
  8  9  2  0  0  0  0
  8 10  1  0  0  0  0
  9 11  1  0  0  0  0
  9 30  1  0  0  0  0
 10 13  2  0  0  0  0
 10 31  1  0  0  0  0
 11 12  1  0  0  0  0
 11 14  2  0  0  0  0
 12 13  1  0  0  0  0
 12 15  2  0  0  0  0
 13 32  1  0  0  0  0
 14 16  1  0  0  0  0
 14 33  1  0  0  0  0
 15 17  1  0  0  0  0
 15 34  1  0  0  0  0
 16 17  2  0  0  0  0
 16 35  1  0  0  0  0
 17 36  1  0  0  0  0
M  CHG  1   2   1
M  END
> <PUBCHEM_COMPOUND_CID>
29155316

> <PUBCHEM_COMPOUND_CANONICALIZED>
1

> <PUBCHEM_CACTVS_COMPLEXITY>
235

> <PUBCHEM_CACTVS_HBOND_ACCEPTOR>
1

> <PUBCHEM_CACTVS_HBOND_DONOR>
1

> <PUBCHEM_CACTVS_ROTATABLE_BOND>
2

> <PUBCHEM_CACTVS_SUBSKEYS>
AAADceBzAAAAAAAAAAAAAAAAAAAAAAAAAAA8YIAAAAAAAADBUAAAHAAQAAAADADBGAQwAMPAAACAAiBCAACCAAAgAAAIiIAIBIgIYCKAkRGUIAhgkACIiAcQgMAOwAACAAAQAACAAAQAACAAAAAAAAAAAA==

> <PUBCHEM_IUPAC_OPENEYE_NAME>
1-(2-naphthylmethyl)piperazin-4-ium

> <PUBCHEM_IUPAC_CAS_NAME>
1-(2-naphthalenylmethyl)piperazin-4-ium

> <PUBCHEM_IUPAC_NAME>
1-(naphthalen-2-ylmethyl)piperazin-4-ium

> <PUBCHEM_IUPAC_SYSTEMATIC_NAME>
1-(naphthalen-2-ylmethyl)piperazin-4-ium

> <PUBCHEM_IUPAC_TRADITIONAL_NAME>
1-(2-naphthylmethyl)piperazin-4-ium

> <PUBCHEM_IUPAC_INCHI>
InChI=1S/C15H18N2/c1-2-4-15-11-13(5-6-14(15)3-1)12-17-9-7-16-8-10-17/h1-6,11,16H,7-10,12H2/p+1

> <PUBCHEM_IUPAC_INCHIKEY>
FDVCUOJHWRHXMF-UHFFFAOYSA-O

> <PUBCHEM_XLOGP3>
2.3

> <PUBCHEM_EXACT_MASS>
227.154824

> <PUBCHEM_MOLECULAR_FORMULA>
C15H19N2+

> <PUBCHEM_MOLECULAR_WEIGHT>
227.32476

> <PUBCHEM_OPENEYE_CAN_SMILES>
C1CN(CC[NH2+]1)CC2=CC3=CC=CC=C3C=C2

> <PUBCHEM_OPENEYE_ISO_SMILES>
C1CN(CC[NH2+]1)CC2=CC3=CC=CC=C3C=C2

> <PUBCHEM_CACTVS_TPSA>
19.8

> <PUBCHEM_MONOISOTOPIC_WEIGHT>
227.154824

> <PUBCHEM_TOTAL_CHARGE>
1

> <PUBCHEM_HEAVY_ATOM_COUNT>
17

> <PUBCHEM_ATOM_DEF_STEREO_COUNT>
0

> <PUBCHEM_ATOM_UDEF_STEREO_COUNT>
0

> <PUBCHEM_BOND_DEF_STEREO_COUNT>
0

> <PUBCHEM_BOND_UDEF_STEREO_COUNT>
0

> <PUBCHEM_ISOTOPIC_ATOM_COUNT>
0

> <PUBCHEM_COMPONENT_COUNT>
1

> <PUBCHEM_CACTVS_TAUTO_COUNT>
1

> <PUBCHEM_COORDINATE_TYPE>
1
5
255

> <PUBCHEM_BONDANNOTATIONS>
10  13  8
11  12  8
11  14  8
12  13  8
12  15  8
14  16  8
15  17  8
16  17  8
8  10  8
8  9  8
9  11  8

$$$$
29163975
  -OEChem-12041211392D

 41 42  0     0  0  0  0  0  0999 V2000
    3.2733    0.2071    0.0000 O   0  0  0  0  0  0  0  0  0  0  0  0
    6.6804   -2.8807    0.0000 O   0  0  0  0  0  0  0  0  0  0  0  0
    2.0000    1.8626    0.0000 O   0  5  0  0  0  0  0  0  0  0  0  0
    3.4013    2.8807    0.0000 O   0  0  0  0  0  0  0  0  0  0  0  0
   10.1445   -1.8807    0.0000 N   0  0  0  0  0  0  0  0  0  0  0  0
    8.4124    1.1193    0.0000 N   0  0  0  0  0  0  0  0  0  0  0  0
    9.2785   -0.3807    0.0000 N   0  0  0  0  0  0  0  0  0  0  0  0
    7.5464   -0.3807    0.0000 N   0  0  0  0  0  0  0  0  0  0  0  0
    8.4124   -1.8807    0.0000 N   0  0  0  0  0  0  0  0  0  0  0  0
    5.8144   -1.3807    0.0000 N   0  0  0  0  0  0  0  0  0  0  0  0
    4.9483   -1.8807    0.0000 N   0  0  0  0  0  0  0  0  0  0  0  0
    2.9945    1.9672    0.0000 N   0  3  0  0  0  0  0  0  0  0  0  0
   11.0105   -1.3807    0.0000 C   0  0  0  0  0  0  0  0  0  0  0  0
    9.2785    1.6193    0.0000 C   0  0  0  0  0  0  0  0  0  0  0  0
    9.2785   -1.3807    0.0000 C   0  0  0  0  0  0  0  0  0  0  0  0
    8.4124    0.1193    0.0000 C   0  0  0  0  0  0  0  0  0  0  0  0
    7.5464   -1.3807    0.0000 C   0  0  0  0  0  0  0  0  0  0  0  0
   11.8765   -1.8807    0.0000 C   0  0  0  0  0  0  0  0  0  0  0  0
    9.2785    2.6193    0.0000 C   0  0  0  0  0  0  0  0  0  0  0  0
    6.6804   -1.8807    0.0000 C   0  0  0  0  0  0  0  0  0  0  0  0
    4.0823   -0.3807    0.0000 C   0  0  0  0  0  0  0  0  0  0  0  0
    4.8913    0.2071    0.0000 C   0  0  0  0  0  0  0  0  0  0  0  0
    3.5823    1.1581    0.0000 C   0  0  0  0  0  0  0  0  0  0  0  0
    4.5823    1.1581    0.0000 C   0  0  0  0  0  0  0  0  0  0  0  0
    4.0823   -1.3807    0.0000 C   0  0  0  0  0  0  0  0  0  0  0  0
   11.4090   -0.9058    0.0000 H   0  0  0  0  0  0  0  0  0  0  0  0
   10.6120   -0.9058    0.0000 H   0  0  0  0  0  0  0  0  0  0  0  0
    9.4905    1.0367    0.0000 H   0  0  0  0  0  0  0  0  0  0  0  0
    9.8890    1.7270    0.0000 H   0  0  0  0  0  0  0  0  0  0  0  0
   10.1445   -2.5007    0.0000 H   0  0  0  0  0  0  0  0  0  0  0  0
    7.8755    1.4293    0.0000 H   0  0  0  0  0  0  0  0  0  0  0  0
   11.5665   -2.4176    0.0000 H   0  0  0  0  0  0  0  0  0  0  0  0
   12.4135   -2.1907    0.0000 H   0  0  0  0  0  0  0  0  0  0  0  0
   12.1865   -1.3438    0.0000 H   0  0  0  0  0  0  0  0  0  0  0  0
    9.8985    2.6193    0.0000 H   0  0  0  0  0  0  0  0  0  0  0  0
    9.2785    3.2393    0.0000 H   0  0  0  0  0  0  0  0  0  0  0  0
    8.6585    2.6193    0.0000 H   0  0  0  0  0  0  0  0  0  0  0  0
    5.4810    0.0155    0.0000 H   0  0  0  0  0  0  0  0  0  0  0  0
    4.9467    1.6597    0.0000 H   0  0  0  0  0  0  0  0  0  0  0  0
    5.8144   -0.7607    0.0000 H   0  0  0  0  0  0  0  0  0  0  0  0
    3.5454   -1.6907    0.0000 H   0  0  0  0  0  0  0  0  0  0  0  0
  1 21  1  0  0  0  0
  1 23  1  0  0  0  0
  2 20  2  0  0  0  0
  3 12  1  0  0  0  0
  4 12  2  0  0  0  0
  5 13  1  0  0  0  0
  5 15  1  0  0  0  0
  5 30  1  0  0  0  0
  6 14  1  0  0  0  0
  6 16  1  0  0  0  0
  6 31  1  0  0  0  0
  7 15  2  0  0  0  0
  7 16  1  0  0  0  0
  8 16  2  0  0  0  0
  8 17  1  0  0  0  0
  9 15  1  0  0  0  0
  9 17  2  0  0  0  0
 10 11  1  0  0  0  0
 10 20  1  0  0  0  0
 10 40  1  0  0  0  0
 11 25  2  0  0  0  0
 12 23  1  0  0  0  0
 13 18  1  0  0  0  0
 13 26  1  0  0  0  0
 13 27  1  0  0  0  0
 14 19  1  0  0  0  0
 14 28  1  0  0  0  0
 14 29  1  0  0  0  0
 17 20  1  0  0  0  0
 18 32  1  0  0  0  0
 18 33  1  0  0  0  0
 18 34  1  0  0  0  0
 19 35  1  0  0  0  0
 19 36  1  0  0  0  0
 19 37  1  0  0  0  0
 21 22  2  0  0  0  0
 21 25  1  0  0  0  0
 22 24  1  0  0  0  0
 22 38  1  0  0  0  0
 23 24  2  0  0  0  0
 24 39  1  0  0  0  0
 25 41  1  0  0  0  0
M  CHG  2   3  -1  12   1
M  END
> <PUBCHEM_COMPOUND_CID>
29163975

> <PUBCHEM_COMPOUND_CANONICALIZED>
1

> <PUBCHEM_CACTVS_COMPLEXITY>
471

> <PUBCHEM_CACTVS_HBOND_ACCEPTOR>
10

> <PUBCHEM_CACTVS_HBOND_DONOR>
3

> <PUBCHEM_CACTVS_ROTATABLE_BOND>
7

> <PUBCHEM_CACTVS_SUBSKEYS>
AAADceBz+AAAAAAAAAAAAAAAAAAAASAAAAAsAAAAAAAAAAAB4AAAHgAcAAAACATBkwQzlIb6VECpALNzdwSSiAkuIqA7iIGubNqMbrKEvbuaGSDs2BMI6Ya8AAAAAAAAAAAAAAAAAAAAAAAAAAAAAAAAAA==

> <PUBCHEM_IUPAC_OPENEYE_NAME>
4,6-bis(ethylamino)-N-[(Z)-(5-nitro-2-furyl)methyleneamino]-1,3,5-triazine-2-carboxamide

> <PUBCHEM_IUPAC_CAS_NAME>
4,6-bis(ethylamino)-N-[(Z)-(5-nitro-2-furanyl)methylideneamino]-1,3,5-triazine-2-carboxamide

> <PUBCHEM_IUPAC_NAME>
4,6-bis(ethylamino)-N-[(Z)-(5-nitrofuran-2-yl)methylideneamino]-1,3,5-triazine-2-carboxamide

> <PUBCHEM_IUPAC_SYSTEMATIC_NAME>
4,6-bis(ethylamino)-N-[(Z)-(5-nitrofuran-2-yl)methylideneamino]-1,3,5-triazine-2-carboxamide

> <PUBCHEM_IUPAC_TRADITIONAL_NAME>
4,6-bis(ethylamino)-N-[(Z)-(5-nitro-2-furyl)methyleneamino]-s-triazine-2-carboxamide

> <PUBCHEM_IUPAC_INCHI>
InChI=1S/C13H16N8O4/c1-3-14-12-17-10(18-13(19-12)15-4-2)11(22)20-16-7-8-5-6-9(25-8)21(23)24/h5-7H,3-4H2,1-2H3,(H,20,22)(H2,14,15,17,18,19)/b16-7-

> <PUBCHEM_IUPAC_INCHIKEY>
MMPPPPNLTCNUPJ-APSNUPSMSA-N

> <PUBCHEM_XLOGP3>
2.2

> <PUBCHEM_EXACT_MASS>
348.129451

> <PUBCHEM_MOLECULAR_FORMULA>
C13H16N8O4

> <PUBCHEM_MOLECULAR_WEIGHT>
348.31734

> <PUBCHEM_OPENEYE_CAN_SMILES>
CCNC1=NC(=NC(=N1)C(=O)NN=CC2=CC=C(O2)[N+](=O)[O-])NCC

> <PUBCHEM_OPENEYE_ISO_SMILES>
CCNC1=NC(=NC(=N1)C(=O)N/N=C\C2=CC=C(O2)[N+](=O)[O-])NCC

> <PUBCHEM_CACTVS_TPSA>
163

> <PUBCHEM_MONOISOTOPIC_WEIGHT>
348.129451

> <PUBCHEM_TOTAL_CHARGE>
0

> <PUBCHEM_HEAVY_ATOM_COUNT>
25

> <PUBCHEM_ATOM_DEF_STEREO_COUNT>
0

> <PUBCHEM_ATOM_UDEF_STEREO_COUNT>
0

> <PUBCHEM_BOND_DEF_STEREO_COUNT>
1

> <PUBCHEM_BOND_UDEF_STEREO_COUNT>
0

> <PUBCHEM_ISOTOPIC_ATOM_COUNT>
0

> <PUBCHEM_COMPONENT_COUNT>
1

> <PUBCHEM_CACTVS_TAUTO_COUNT>
10

> <PUBCHEM_COORDINATE_TYPE>
1
5
255

> <PUBCHEM_BONDANNOTATIONS>
1  21  8
1  23  8
21  22  8
22  24  8
23  24  8
7  15  8
7  16  8
8  16  8
8  17  8
9  15  8
9  17  8

$$$$
29164820
  -OEChem-12041211392D

 59 61  0     0  0  0  0  0  0999 V2000
   11.5263    6.8170    0.0000 F   0  0  0  0  0  0  0  0  0  0  0  0
   10.1603    7.1830    0.0000 F   0  0  0  0  0  0  0  0  0  0  0  0
   11.1603    5.4510    0.0000 F   0  0  0  0  0  0  0  0  0  0  0  0
    6.3301   -3.1830    0.0000 O   0  0  0  0  0  0  0  0  0  0  0  0
    8.0622    1.8170    0.0000 O   0  0  0  0  0  0  0  0  0  0  0  0
    9.7942    5.8170    0.0000 O   0  0  0  0  0  0  0  0  0  0  0  0
    2.0000   -4.6830    0.0000 O   0  5  0  0  0  0  0  0  0  0  0  0
    2.8660   -3.1830    0.0000 O   0  0  0  0  0  0  0  0  0  0  0  0
    6.3301   -1.1830    0.0000 N   0  0  0  0  0  0  0  0  0  0  0  0
    8.0622   -0.1830    0.0000 N   0  0  0  0  0  0  0  0  0  0  0  0
    4.5981   -3.1830    0.0000 N   0  0  0  0  0  0  0  0  0  0  0  0
    9.7942    1.8170    0.0000 N   0  0  0  0  0  0  0  0  0  0  0  0
    2.8660   -4.1830    0.0000 N   0  3  0  0  0  0  0  0  0  0  0  0
    7.1962   -1.6830    0.0000 C   0  0  0  0  0  0  0  0  0  0  0  0
    6.3301   -0.1830    0.0000 C   0  0  0  0  0  0  0  0  0  0  0  0
    8.0622   -1.1830    0.0000 C   0  0  0  0  0  0  0  0  0  0  0  0
    7.1962    0.3170    0.0000 C   0  0  0  0  0  0  0  0  0  0  0  0
    5.4641   -1.6830    0.0000 C   0  0  0  0  0  0  0  0  0  0  0  0
    8.9282    0.3170    0.0000 C   0  0  0  0  0  0  0  0  0  0  0  0
    5.4641   -2.6830    0.0000 C   0  0  0  0  0  0  0  0  0  0  0  0
    8.9282    1.3170    0.0000 C   0  0  0  0  0  0  0  0  0  0  0  0
    4.5981   -4.1830    0.0000 C   0  0  0  0  0  0  0  0  0  0  0  0
    9.7942    2.8170    0.0000 C   0  0  0  0  0  0  0  0  0  0  0  0
    3.7320   -4.6830    0.0000 C   0  0  0  0  0  0  0  0  0  0  0  0
    5.4641   -4.6830    0.0000 C   0  0  0  0  0  0  0  0  0  0  0  0
   10.6603    3.3170    0.0000 C   0  0  0  0  0  0  0  0  0  0  0  0
    8.9282    3.3170    0.0000 C   0  0  0  0  0  0  0  0  0  0  0  0
    3.7320   -5.6830    0.0000 C   0  0  0  0  0  0  0  0  0  0  0  0
    4.5981   -6.1830    0.0000 C   0  0  0  0  0  0  0  0  0  0  0  0
    5.4641   -5.6830    0.0000 C   0  0  0  0  0  0  0  0  0  0  0  0
   10.6603    4.3170    0.0000 C   0  0  0  0  0  0  0  0  0  0  0  0
    8.9282    4.3170    0.0000 C   0  0  0  0  0  0  0  0  0  0  0  0
    9.7942    4.8170    0.0000 C   0  0  0  0  0  0  0  0  0  0  0  0
    4.5981   -7.1830    0.0000 C   0  0  0  0  0  0  0  0  0  0  0  0
   10.6603    6.3170    0.0000 C   0  0  0  0  0  0  0  0  0  0  0  0
    6.1181    0.3996    0.0000 H   0  0  0  0  0  0  0  0  0  0  0  0
    5.7196   -0.2907    0.0000 H   0  0  0  0  0  0  0  0  0  0  0  0
    6.7976   -2.1580    0.0000 H   0  0  0  0  0  0  0  0  0  0  0  0
    7.5947   -2.1580    0.0000 H   0  0  0  0  0  0  0  0  0  0  0  0
    7.5947    0.7919    0.0000 H   0  0  0  0  0  0  0  0  0  0  0  0
    6.7976    0.7919    0.0000 H   0  0  0  0  0  0  0  0  0  0  0  0
    8.2742   -1.7656    0.0000 H   0  0  0  0  0  0  0  0  0  0  0  0
    8.6728   -1.0754    0.0000 H   0  0  0  0  0  0  0  0  0  0  0  0
    5.2520   -1.1004    0.0000 H   0  0  0  0  0  0  0  0  0  0  0  0
    4.8535   -1.7907    0.0000 H   0  0  0  0  0  0  0  0  0  0  0  0
    9.1403   -0.2656    0.0000 H   0  0  0  0  0  0  0  0  0  0  0  0
    9.5388    0.4246    0.0000 H   0  0  0  0  0  0  0  0  0  0  0  0
    4.0611   -2.8730    0.0000 H   0  0  0  0  0  0  0  0  0  0  0  0
   10.3312    1.5070    0.0000 H   0  0  0  0  0  0  0  0  0  0  0  0
    6.0010   -4.3730    0.0000 H   0  0  0  0  0  0  0  0  0  0  0  0
    3.1951   -5.9930    0.0000 H   0  0  0  0  0  0  0  0  0  0  0  0
   11.1972    3.0070    0.0000 H   0  0  0  0  0  0  0  0  0  0  0  0
    8.3913    3.0070    0.0000 H   0  0  0  0  0  0  0  0  0  0  0  0
    6.0010   -5.9930    0.0000 H   0  0  0  0  0  0  0  0  0  0  0  0
   11.1972    4.6270    0.0000 H   0  0  0  0  0  0  0  0  0  0  0  0
    8.3913    4.6270    0.0000 H   0  0  0  0  0  0  0  0  0  0  0  0
    3.9781   -7.1830    0.0000 H   0  0  0  0  0  0  0  0  0  0  0  0
    4.5981   -7.8030    0.0000 H   0  0  0  0  0  0  0  0  0  0  0  0
    5.2181   -7.1830    0.0000 H   0  0  0  0  0  0  0  0  0  0  0  0
  1 35  1  0  0  0  0
  2 35  1  0  0  0  0
  3 35  1  0  0  0  0
  4 20  2  0  0  0  0
  5 21  2  0  0  0  0
  6 33  1  0  0  0  0
  6 35  1  0  0  0  0
  7 13  1  0  0  0  0
  8 13  2  0  0  0  0
  9 14  1  0  0  0  0
  9 15  1  0  0  0  0
  9 18  1  0  0  0  0
 10 16  1  0  0  0  0
 10 17  1  0  0  0  0
 10 19  1  0  0  0  0
 11 20  1  0  0  0  0
 11 22  1  0  0  0  0
 11 48  1  0  0  0  0
 12 21  1  0  0  0  0
 12 23  1  0  0  0  0
 12 49  1  0  0  0  0
 13 24  1  0  0  0  0
 14 16  1  0  0  0  0
 14 38  1  0  0  0  0
 14 39  1  0  0  0  0
 15 17  1  0  0  0  0
 15 36  1  0  0  0  0
 15 37  1  0  0  0  0
 16 42  1  0  0  0  0
 16 43  1  0  0  0  0
 17 40  1  0  0  0  0
 17 41  1  0  0  0  0
 18 20  1  0  0  0  0
 18 44  1  0  0  0  0
 18 45  1  0  0  0  0
 19 21  1  0  0  0  0
 19 46  1  0  0  0  0
 19 47  1  0  0  0  0
 22 24  2  0  0  0  0
 22 25  1  0  0  0  0
 23 26  2  0  0  0  0
 23 27  1  0  0  0  0
 24 28  1  0  0  0  0
 25 30  2  0  0  0  0
 25 50  1  0  0  0  0
 26 31  1  0  0  0  0
 26 52  1  0  0  0  0
 27 32  2  0  0  0  0
 27 53  1  0  0  0  0
 28 29  2  0  0  0  0
 28 51  1  0  0  0  0
 29 30  1  0  0  0  0
 29 34  1  0  0  0  0
 30 54  1  0  0  0  0
 31 33  2  0  0  0  0
 31 55  1  0  0  0  0
 32 33  1  0  0  0  0
 32 56  1  0  0  0  0
 34 57  1  0  0  0  0
 34 58  1  0  0  0  0
 34 59  1  0  0  0  0
M  CHG  2   7  -1  13   1
M  END
> <PUBCHEM_COMPOUND_CID>
29164820

> <PUBCHEM_COMPOUND_CANONICALIZED>
1

> <PUBCHEM_CACTVS_COMPLEXITY>
734

> <PUBCHEM_CACTVS_HBOND_ACCEPTOR>
10

> <PUBCHEM_CACTVS_HBOND_DONOR>
2

> <PUBCHEM_CACTVS_ROTATABLE_BOND>
7

> <PUBCHEM_CACTVS_SUBSKEYS>
AAADceB7uYAAAAAAAAAAAAAAAAAAAAAAAAA8YIAAAAAAAAABQAAAHwAUAAAADAzBmBQyxoPQRACJAiVSUwCCCAAhIgAoiACOfIoMZiLEsbuUMChk1JHI6AewwAAOCEAAQAAAACAQgACAAAAAQAAAAAAAAA==

> <PUBCHEM_IUPAC_OPENEYE_NAME>
2-[4-[2-(4-methyl-2-nitro-anilino)-2-oxo-ethyl]piperazin-1-yl]-N-[4-(trifluoromethoxy)phenyl]acetamide

> <PUBCHEM_IUPAC_CAS_NAME>
2-[4-[2-(4-methyl-2-nitroanilino)-2-oxoethyl]-1-piperazinyl]-N-[4-(trifluoromethoxy)phenyl]acetamide

> <PUBCHEM_IUPAC_NAME>
2-[4-[2-(4-methyl-2-nitroanilino)-2-oxoethyl]piperazin-1-yl]-N-[4-(trifluoromethoxy)phenyl]acetamide

> <PUBCHEM_IUPAC_SYSTEMATIC_NAME>
2-[4-[2-[(4-methyl-2-nitro-phenyl)amino]-2-oxidanylidene-ethyl]piperazin-1-yl]-N-[4-(trifluoromethyloxy)phenyl]ethanamide

> <PUBCHEM_IUPAC_TRADITIONAL_NAME>
2-[4-[2-keto-2-(4-methyl-2-nitro-anilino)ethyl]piperazino]-N-[4-(trifluoromethoxy)phenyl]acetamide

> <PUBCHEM_IUPAC_INCHI>
InChI=1S/C22H24F3N5O5/c1-15-2-7-18(19(12-15)30(33)34)27-21(32)14-29-10-8-28(9-11-29)13-20(31)26-16-3-5-17(6-4-16)35-22(23,24)25/h2-7,12H,8-11,13-14H2,1H3,(H,26,31)(H,27,32)

> <PUBCHEM_IUPAC_INCHIKEY>
PJNTVMRWQDKUSV-UHFFFAOYSA-N

> <PUBCHEM_XLOGP3>
3.5

> <PUBCHEM_EXACT_MASS>
495.172954

> <PUBCHEM_MOLECULAR_FORMULA>
C22H24F3N5O5

> <PUBCHEM_MOLECULAR_WEIGHT>
495.45167

> <PUBCHEM_OPENEYE_CAN_SMILES>
CC1=CC(=C(C=C1)NC(=O)CN2CCN(CC2)CC(=O)NC3=CC=C(C=C3)OC(F)(F)F)[N+](=O)[O-]

> <PUBCHEM_OPENEYE_ISO_SMILES>
CC1=CC(=C(C=C1)NC(=O)CN2CCN(CC2)CC(=O)NC3=CC=C(C=C3)OC(F)(F)F)[N+](=O)[O-]

> <PUBCHEM_CACTVS_TPSA>
120

> <PUBCHEM_MONOISOTOPIC_WEIGHT>
495.172954

> <PUBCHEM_TOTAL_CHARGE>
0

> <PUBCHEM_HEAVY_ATOM_COUNT>
35

> <PUBCHEM_ATOM_DEF_STEREO_COUNT>
0

> <PUBCHEM_ATOM_UDEF_STEREO_COUNT>
0

> <PUBCHEM_BOND_DEF_STEREO_COUNT>
0

> <PUBCHEM_BOND_UDEF_STEREO_COUNT>
0

> <PUBCHEM_ISOTOPIC_ATOM_COUNT>
0

> <PUBCHEM_COMPONENT_COUNT>
1

> <PUBCHEM_CACTVS_TAUTO_COUNT>
9

> <PUBCHEM_COORDINATE_TYPE>
1
5
255

> <PUBCHEM_BONDANNOTATIONS>
22  24  8
22  25  8
23  26  8
23  27  8
24  28  8
25  30  8
26  31  8
27  32  8
28  29  8
29  30  8
31  33  8
32  33  8

$$$$
