46334588
  -OEChem-06121221462D

 36 38  0     0  0  0  0  0  0999 V2000
    2.0000   -0.8310    0.0000 Cl  0  0  0  0  0  0  0  0  0  0  0  0
   10.1279   -1.5630    0.0000 O   0  0  0  0  0  0  0  0  0  0  0  0
    5.5443    0.9737    0.0000 N   0  0  0  0  0  0  0  0  0  0  0  0
   10.1279    0.1690    0.0000 N   0  0  0  0  0  0  0  0  0  0  0  0
    6.1279    0.1690    0.0000 C   0  0  0  0  0  0  0  0  0  0  0  0
    4.5981   -0.3310    0.0000 C   0  0  0  0  0  0  0  0  0  0  0  0
    4.5981    0.6690    0.0000 C   0  0  0  0  0  0  0  0  0  0  0  0
    7.1279    0.1690    0.0000 C   0  0  0  0  0  0  0  0  0  0  0  0
    5.5443   -0.6357    0.0000 C   0  0  0  0  0  0  0  0  0  0  0  0
    3.7320   -0.8310    0.0000 C   0  0  0  0  0  0  0  0  0  0  0  0
    3.7320    1.1690    0.0000 C   0  0  0  0  0  0  0  0  0  0  0  0
    7.6279   -0.6970    0.0000 C   0  0  0  0  0  0  0  0  0  0  0  0
    7.6279    1.0350    0.0000 C   0  0  0  0  0  0  0  0  0  0  0  0
    9.1279    0.1690    0.0000 C   0  0  0  0  0  0  0  0  0  0  0  0
    8.6279   -0.6970    0.0000 C   0  0  0  0  0  0  0  0  0  0  0  0
    8.6279    1.0350    0.0000 C   0  0  0  0  0  0  0  0  0  0  0  0
    2.8660   -0.3310    0.0000 C   0  0  0  0  0  0  0  0  0  0  0  0
    2.8660    0.6690    0.0000 C   0  0  0  0  0  0  0  0  0  0  0  0
   10.6279   -0.6970    0.0000 C   0  0  0  0  0  0  0  0  0  0  0  0
   11.6279   -0.6970    0.0000 C   0  0  0  0  0  0  0  0  0  0  0  0
   12.1279   -1.5630    0.0000 C   0  0  0  0  0  0  0  0  0  0  0  0
    5.7369   -1.2251    0.0000 H   0  0  0  0  0  0  0  0  0  0  0  0
    5.7369    1.5630    0.0000 H   0  0  0  0  0  0  0  0  0  0  0  0
    3.7320   -1.4510    0.0000 H   0  0  0  0  0  0  0  0  0  0  0  0
    3.7320    1.7890    0.0000 H   0  0  0  0  0  0  0  0  0  0  0  0
    7.3179   -1.2340    0.0000 H   0  0  0  0  0  0  0  0  0  0  0  0
    7.3179    1.5720    0.0000 H   0  0  0  0  0  0  0  0  0  0  0  0
    8.9379   -1.2340    0.0000 H   0  0  0  0  0  0  0  0  0  0  0  0
    8.9379    1.5720    0.0000 H   0  0  0  0  0  0  0  0  0  0  0  0
    2.3291    0.9790    0.0000 H   0  0  0  0  0  0  0  0  0  0  0  0
   10.4379    0.7059    0.0000 H   0  0  0  0  0  0  0  0  0  0  0  0
   12.2105   -0.4850    0.0000 H   0  0  0  0  0  0  0  0  0  0  0  0
   11.5202   -0.0864    0.0000 H   0  0  0  0  0  0  0  0  0  0  0  0
   11.5910   -1.8730    0.0000 H   0  0  0  0  0  0  0  0  0  0  0  0
   12.4379   -2.1000    0.0000 H   0  0  0  0  0  0  0  0  0  0  0  0
   12.6648   -1.2530    0.0000 H   0  0  0  0  0  0  0  0  0  0  0  0
  1 17  1  0  0  0  0
  2 19  2  0  0  0  0
  3  5  1  0  0  0  0
  3  7  1  0  0  0  0
  3 23  1  0  0  0  0
  4 14  1  0  0  0  0
  4 19  1  0  0  0  0
  4 31  1  0  0  0  0
  5  8  1  0  0  0  0
  5  9  2  0  0  0  0
  6  7  2  0  0  0  0
  6  9  1  0  0  0  0
  6 10  1  0  0  0  0
  7 11  1  0  0  0  0
  8 12  2  0  0  0  0
  8 13  1  0  0  0  0
  9 22  1  0  0  0  0
 10 17  2  0  0  0  0
 10 24  1  0  0  0  0
 11 18  2  0  0  0  0
 11 25  1  0  0  0  0
 12 15  1  0  0  0  0
 12 26  1  0  0  0  0
 13 16  2  0  0  0  0
 13 27  1  0  0  0  0
 14 15  2  0  0  0  0
 14 16  1  0  0  0  0
 15 28  1  0  0  0  0
 16 29  1  0  0  0  0
 17 18  1  0  0  0  0
 18 30  1  0  0  0  0
 19 20  1  0  0  0  0
 20 21  1  0  0  0  0
 20 32  1  0  0  0  0
 20 33  1  0  0  0  0
 21 34  1  0  0  0  0
 21 35  1  0  0  0  0
 21 36  1  0  0  0  0
M  END
> <PUBCHEM_COMPOUND_CID>
46334588

> <PUBCHEM_COMPOUND_CANONICALIZED>
1

> <PUBCHEM_CACTVS_COMPLEXITY>
368

> <PUBCHEM_CACTVS_HBOND_ACCEPTOR>
1

> <PUBCHEM_CACTVS_HBOND_DONOR>
2

> <PUBCHEM_CACTVS_ROTATABLE_BOND>
3

> <PUBCHEM_CACTVS_SUBSKEYS>
AAADccB7IAAEAAAAAAAAAAAAAAAAAWAAAAAwYAAAAAAAAFgB9AAAHgIQAAAADAqBniAywPLJkACoAyVyVACCgCAhByAImSEwZpgIIOLBk5GEIAhglADIyAcQgMAOCABAIAACAAAQAIBAAAQAAAAAAAAAAA==

> <PUBCHEM_IUPAC_OPENEYE_NAME>
N-[4-(5-chloro-1H-indol-2-yl)phenyl]propanamide

> <PUBCHEM_IUPAC_CAS_NAME>
N-[4-(5-chloro-1H-indol-2-yl)phenyl]propanamide

> <PUBCHEM_IUPAC_NAME>
N-[4-(5-chloro-1H-indol-2-yl)phenyl]propanamide

> <PUBCHEM_IUPAC_SYSTEMATIC_NAME>
N-[4-(5-chloranyl-1H-indol-2-yl)phenyl]propanamide

> <PUBCHEM_IUPAC_TRADITIONAL_NAME>
N-[4-(5-chloro-1H-indol-2-yl)phenyl]propionamide

> <PUBCHEM_IUPAC_INCHI>
InChI=1S/C17H15ClN2O/c1-2-17(21)19-14-6-3-11(4-7-14)16-10-12-9-13(18)5-8-15(12)20-16/h3-10,20H,2H2,1H3,(H,19,21)

> <PUBCHEM_IUPAC_INCHIKEY>
BBYMHPSDKGZONX-UHFFFAOYSA-N

> <PUBCHEM_XLOGP3>
3.6

> <PUBCHEM_EXACT_MASS>
298.087291

> <PUBCHEM_MOLECULAR_FORMULA>
C17H15ClN2O

> <PUBCHEM_MOLECULAR_WEIGHT>
298.7668

> <PUBCHEM_OPENEYE_CAN_SMILES>
CCC(=O)NC1=CC=C(C=C1)C2=CC3=C(N2)C=CC(=C3)Cl

> <PUBCHEM_OPENEYE_ISO_SMILES>
CCC(=O)NC1=CC=C(C=C1)C2=CC3=C(N2)C=CC(=C3)Cl

> <PUBCHEM_CACTVS_TPSA>
44.9

> <PUBCHEM_MONOISOTOPIC_WEIGHT>
298.087291

> <PUBCHEM_TOTAL_CHARGE>
0

> <PUBCHEM_HEAVY_ATOM_COUNT>
21

> <PUBCHEM_ATOM_DEF_STEREO_COUNT>
0

> <PUBCHEM_ATOM_UDEF_STEREO_COUNT>
0

> <PUBCHEM_BOND_DEF_STEREO_COUNT>
0

> <PUBCHEM_BOND_UDEF_STEREO_COUNT>
0

> <PUBCHEM_ISOTOPIC_ATOM_COUNT>
0

> <PUBCHEM_COMPONENT_COUNT>
1

> <PUBCHEM_CACTVS_TAUTO_COUNT>
3

> <PUBCHEM_COORDINATE_TYPE>
1
5
255

> <PUBCHEM_BONDANNOTATIONS>
10  17  8
11  18  8
12  15  8
13  16  8
14  15  8
14  16  8
17  18  8
3  5  8
3  7  8
5  9  8
6  10  8
6  7  8
6  9  8
7  11  8
8  12  8
8  13  8

$$$$
46334591
  -OEChem-06121221462D

 39 41  0     0  0  0  0  0  0999 V2000
    2.0000   -0.8310    0.0000 Cl  0  0  0  0  0  0  0  0  0  0  0  0
   10.1279   -1.5630    0.0000 O   0  0  0  0  0  0  0  0  0  0  0  0
    5.5443    0.9737    0.0000 N   0  0  0  0  0  0  0  0  0  0  0  0
   10.1279    0.1690    0.0000 N   0  0  0  0  0  0  0  0  0  0  0  0
    6.1279    0.1690    0.0000 C   0  0  0  0  0  0  0  0  0  0  0  0
    4.5981   -0.3310    0.0000 C   0  0  0  0  0  0  0  0  0  0  0  0
    4.5981    0.6690    0.0000 C   0  0  0  0  0  0  0  0  0  0  0  0
    7.1279    0.1690    0.0000 C   0  0  0  0  0  0  0  0  0  0  0  0
    5.5443   -0.6357    0.0000 C   0  0  0  0  0  0  0  0  0  0  0  0
   11.6279   -0.6970    0.0000 C   0  0  0  0  0  0  0  0  0  0  0  0
    9.1279    0.1690    0.0000 C   0  0  0  0  0  0  0  0  0  0  0  0
    7.6279   -0.6970    0.0000 C   0  0  0  0  0  0  0  0  0  0  0  0
    7.6279    1.0350    0.0000 C   0  0  0  0  0  0  0  0  0  0  0  0
    3.7320   -0.8310    0.0000 C   0  0  0  0  0  0  0  0  0  0  0  0
    3.7320    1.1690    0.0000 C   0  0  0  0  0  0  0  0  0  0  0  0
   10.6279   -0.6970    0.0000 C   0  0  0  0  0  0  0  0  0  0  0  0
    8.6279   -0.6970    0.0000 C   0  0  0  0  0  0  0  0  0  0  0  0
    8.6279    1.0350    0.0000 C   0  0  0  0  0  0  0  0  0  0  0  0
   12.1279   -1.5630    0.0000 C   0  0  0  0  0  0  0  0  0  0  0  0
   12.1279    0.1690    0.0000 C   0  0  0  0  0  0  0  0  0  0  0  0
    2.8660   -0.3310    0.0000 C   0  0  0  0  0  0  0  0  0  0  0  0
    2.8660    0.6690    0.0000 C   0  0  0  0  0  0  0  0  0  0  0  0
    5.7369   -1.2251    0.0000 H   0  0  0  0  0  0  0  0  0  0  0  0
    5.7369    1.5630    0.0000 H   0  0  0  0  0  0  0  0  0  0  0  0
   12.2479   -0.6970    0.0000 H   0  0  0  0  0  0  0  0  0  0  0  0
    7.3179   -1.2340    0.0000 H   0  0  0  0  0  0  0  0  0  0  0  0
    7.3179    1.5720    0.0000 H   0  0  0  0  0  0  0  0  0  0  0  0
    3.7320   -1.4510    0.0000 H   0  0  0  0  0  0  0  0  0  0  0  0
    3.7320    1.7890    0.0000 H   0  0  0  0  0  0  0  0  0  0  0  0
    8.9379   -1.2340    0.0000 H   0  0  0  0  0  0  0  0  0  0  0  0
    8.9379    1.5720    0.0000 H   0  0  0  0  0  0  0  0  0  0  0  0
   10.4379    0.7059    0.0000 H   0  0  0  0  0  0  0  0  0  0  0  0
   11.5910   -1.8730    0.0000 H   0  0  0  0  0  0  0  0  0  0  0  0
   12.4379   -2.1000    0.0000 H   0  0  0  0  0  0  0  0  0  0  0  0
   12.6648   -0.1410    0.0000 H   0  0  0  0  0  0  0  0  0  0  0  0
   12.4379    0.7059    0.0000 H   0  0  0  0  0  0  0  0  0  0  0  0
   11.5910    0.4790    0.0000 H   0  0  0  0  0  0  0  0  0  0  0  0
   12.6648   -1.2530    0.0000 H   0  0  0  0  0  0  0  0  0  0  0  0
    2.3291    0.9790    0.0000 H   0  0  0  0  0  0  0  0  0  0  0  0
  1 21  1  0  0  0  0
  2 16  2  0  0  0  0
  3  5  1  0  0  0  0
  3  7  1  0  0  0  0
  3 24  1  0  0  0  0
  4 11  1  0  0  0  0
  4 16  1  0  0  0  0
  4 32  1  0  0  0  0
  5  8  1  0  0  0  0
  5  9  2  0  0  0  0
  6  7  2  0  0  0  0
  6  9  1  0  0  0  0
  6 14  1  0  0  0  0
  7 15  1  0  0  0  0
  8 12  2  0  0  0  0
  8 13  1  0  0  0  0
  9 23  1  0  0  0  0
 10 16  1  0  0  0  0
 10 19  1  0  0  0  0
 10 20  1  0  0  0  0
 10 25  1  0  0  0  0
 11 17  2  0  0  0  0
 11 18  1  0  0  0  0
 12 17  1  0  0  0  0
 12 26  1  0  0  0  0
 13 18  2  0  0  0  0
 13 27  1  0  0  0  0
 14 21  2  0  0  0  0
 14 28  1  0  0  0  0
 15 22  2  0  0  0  0
 15 29  1  0  0  0  0
 17 30  1  0  0  0  0
 18 31  1  0  0  0  0
 19 33  1  0  0  0  0
 19 34  1  0  0  0  0
 19 38  1  0  0  0  0
 20 35  1  0  0  0  0
 20 36  1  0  0  0  0
 20 37  1  0  0  0  0
 21 22  1  0  0  0  0
 22 39  1  0  0  0  0
M  END
> <PUBCHEM_COMPOUND_CID>
46334591

> <PUBCHEM_COMPOUND_CANONICALIZED>
1

> <PUBCHEM_CACTVS_COMPLEXITY>
393

> <PUBCHEM_CACTVS_HBOND_ACCEPTOR>
1

> <PUBCHEM_CACTVS_HBOND_DONOR>
2

> <PUBCHEM_CACTVS_ROTATABLE_BOND>
3

> <PUBCHEM_CACTVS_SUBSKEYS>
AAADceB7IAAEAAAAAAAAAAAAAAAAAWAAAAAwYAAAAAAAAFgB9AAAHgIQAAAADQqBniAywPLJkACoAyVyVACCgCAhByAImSEwZpgIIOLBk5GEIAhglADIyAcQgMAOCABAIAACAAAQAIBAAAQAAAAAAAAAAA==

> <PUBCHEM_IUPAC_OPENEYE_NAME>
N-[4-(5-chloro-1H-indol-2-yl)phenyl]-2-methyl-propanamide

> <PUBCHEM_IUPAC_CAS_NAME>
N-[4-(5-chloro-1H-indol-2-yl)phenyl]-2-methylpropanamide

> <PUBCHEM_IUPAC_NAME>
N-[4-(5-chloro-1H-indol-2-yl)phenyl]-2-methylpropanamide

> <PUBCHEM_IUPAC_SYSTEMATIC_NAME>
N-[4-(5-chloranyl-1H-indol-2-yl)phenyl]-2-methyl-propanamide

> <PUBCHEM_IUPAC_TRADITIONAL_NAME>
N-[4-(5-chloro-1H-indol-2-yl)phenyl]-2-methyl-propionamide

> <PUBCHEM_IUPAC_INCHI>
InChI=1S/C18H17ClN2O/c1-11(2)18(22)20-15-6-3-12(4-7-15)17-10-13-9-14(19)5-8-16(13)21-17/h3-11,21H,1-2H3,(H,20,22)

> <PUBCHEM_IUPAC_INCHIKEY>
MWPIVJVFZJPFKX-UHFFFAOYSA-N

> <PUBCHEM_XLOGP3>
4.1

> <PUBCHEM_EXACT_MASS>
312.102941

> <PUBCHEM_MOLECULAR_FORMULA>
C18H17ClN2O

> <PUBCHEM_MOLECULAR_WEIGHT>
312.79338

> <PUBCHEM_OPENEYE_CAN_SMILES>
CC(C)C(=O)NC1=CC=C(C=C1)C2=CC3=C(N2)C=CC(=C3)Cl

> <PUBCHEM_OPENEYE_ISO_SMILES>
CC(C)C(=O)NC1=CC=C(C=C1)C2=CC3=C(N2)C=CC(=C3)Cl

> <PUBCHEM_CACTVS_TPSA>
44.9

> <PUBCHEM_MONOISOTOPIC_WEIGHT>
312.102941

> <PUBCHEM_TOTAL_CHARGE>
0

> <PUBCHEM_HEAVY_ATOM_COUNT>
22

> <PUBCHEM_ATOM_DEF_STEREO_COUNT>
0

> <PUBCHEM_ATOM_UDEF_STEREO_COUNT>
0

> <PUBCHEM_BOND_DEF_STEREO_COUNT>
0

> <PUBCHEM_BOND_UDEF_STEREO_COUNT>
0

> <PUBCHEM_ISOTOPIC_ATOM_COUNT>
0

> <PUBCHEM_COMPONENT_COUNT>
1

> <PUBCHEM_CACTVS_TAUTO_COUNT>
3

> <PUBCHEM_COORDINATE_TYPE>
1
5
255

> <PUBCHEM_BONDANNOTATIONS>
11  17  8
11  18  8
12  17  8
13  18  8
14  21  8
15  22  8
21  22  8
3  5  8
3  7  8
5  9  8
6  14  8
6  7  8
6  9  8
7  15  8
8  12  8
8  13  8

$$$$
46343126
  -OEChem-06121221472D

 36 37  0     0  0  0  0  0  0999 V2000
    5.4641   -0.7694    0.0000 O   0  0  0  0  0  0  0  0  0  0  0  0
    5.4641    2.2306    0.0000 N   0  0  0  0  0  0  0  0  0  0  0  0
    3.7320   -0.7694    0.0000 N   0  0  0  0  0  0  0  0  0  0  0  0
    5.4641    1.2306    0.0000 C   0  0  0  0  0  0  0  0  0  0  0  0
    4.5981    0.7306    0.0000 C   0  0  0  0  0  0  0  0  0  0  0  0
    3.7320   -1.7694    0.0000 C   0  0  0  0  0  0  0  0  0  0  0  0
    2.8660   -2.2694    0.0000 C   0  0  0  0  0  0  0  0  0  0  0  0
    4.5981   -0.2694    0.0000 C   0  0  0  0  0  0  0  0  0  0  0  0
    2.8660   -3.2694    0.0000 C   0  0  0  0  0  0  0  0  0  0  0  0
    4.5981   -2.2694    0.0000 C   0  0  0  0  0  0  0  0  0  0  0  0
    6.2731    2.8184    0.0000 C   0  0  0  0  0  0  0  0  0  0  0  0
    4.6551    2.8184    0.0000 C   0  0  0  0  0  0  0  0  0  0  0  0
    3.7320   -3.7694    0.0000 C   0  0  0  0  0  0  0  0  0  0  0  0
    2.0000   -1.7694    0.0000 C   0  0  0  0  0  0  0  0  0  0  0  0
    4.5981   -3.2694    0.0000 C   0  0  0  0  0  0  0  0  0  0  0  0
    2.0000   -3.7694    0.0000 C   0  0  0  0  0  0  0  0  0  0  0  0
    4.9641    3.7694    0.0000 C   0  0  0  0  0  0  0  0  0  0  0  0
    5.9641    3.7694    0.0000 C   0  0  0  0  0  0  0  0  0  0  0  0
    5.6762    0.6480    0.0000 H   0  0  0  0  0  0  0  0  0  0  0  0
    6.0747    1.3382    0.0000 H   0  0  0  0  0  0  0  0  0  0  0  0
    4.3860    1.3132    0.0000 H   0  0  0  0  0  0  0  0  0  0  0  0
    3.9875    0.6229    0.0000 H   0  0  0  0  0  0  0  0  0  0  0  0
    3.1951   -0.4594    0.0000 H   0  0  0  0  0  0  0  0  0  0  0  0
    5.1350   -1.9594    0.0000 H   0  0  0  0  0  0  0  0  0  0  0  0
    6.8628    2.6268    0.0000 H   0  0  0  0  0  0  0  0  0  0  0  0
    4.0654    2.6268    0.0000 H   0  0  0  0  0  0  0  0  0  0  0  0
    3.7320   -4.3894    0.0000 H   0  0  0  0  0  0  0  0  0  0  0  0
    2.3100   -1.2325    0.0000 H   0  0  0  0  0  0  0  0  0  0  0  0
    1.4631   -1.4594    0.0000 H   0  0  0  0  0  0  0  0  0  0  0  0
    1.6900   -2.3064    0.0000 H   0  0  0  0  0  0  0  0  0  0  0  0
    5.1350   -3.5794    0.0000 H   0  0  0  0  0  0  0  0  0  0  0  0
    1.6900   -3.2325    0.0000 H   0  0  0  0  0  0  0  0  0  0  0  0
    1.4631   -4.0794    0.0000 H   0  0  0  0  0  0  0  0  0  0  0  0
    2.3100   -4.3064    0.0000 H   0  0  0  0  0  0  0  0  0  0  0  0
    4.5997    4.2710    0.0000 H   0  0  0  0  0  0  0  0  0  0  0  0
    6.3285    4.2710    0.0000 H   0  0  0  0  0  0  0  0  0  0  0  0
  1  8  2  0  0  0  0
  2  4  1  0  0  0  0
  2 11  1  0  0  0  0
  2 12  1  0  0  0  0
  3  6  1  0  0  0  0
  3  8  1  0  0  0  0
  3 23  1  0  0  0  0
  4  5  1  0  0  0  0
  4 19  1  0  0  0  0
  4 20  1  0  0  0  0
  5  8  1  0  0  0  0
  5 21  1  0  0  0  0
  5 22  1  0  0  0  0
  6  7  1  0  0  0  0
  6 10  2  0  0  0  0
  7  9  2  0  0  0  0
  7 14  1  0  0  0  0
  9 13  1  0  0  0  0
  9 16  1  0  0  0  0
 10 15  1  0  0  0  0
 10 24  1  0  0  0  0
 11 18  2  0  0  0  0
 11 25  1  0  0  0  0
 12 17  2  0  0  0  0
 12 26  1  0  0  0  0
 13 15  2  0  0  0  0
 13 27  1  0  0  0  0
 14 28  1  0  0  0  0
 14 29  1  0  0  0  0
 14 30  1  0  0  0  0
 15 31  1  0  0  0  0
 16 32  1  0  0  0  0
 16 33  1  0  0  0  0
 16 34  1  0  0  0  0
 17 18  1  0  0  0  0
 17 35  1  0  0  0  0
 18 36  1  0  0  0  0
M  END
> <PUBCHEM_COMPOUND_CID>
46343126

> <PUBCHEM_COMPOUND_CANONICALIZED>
1

> <PUBCHEM_CACTVS_COMPLEXITY>
274

> <PUBCHEM_CACTVS_HBOND_ACCEPTOR>
1

> <PUBCHEM_CACTVS_HBOND_DONOR>
1

> <PUBCHEM_CACTVS_ROTATABLE_BOND>
4

> <PUBCHEM_CACTVS_SUBSKEYS>
AAADceBzIAAAAAAAAAAAAAAAAAAAAWAAAAAwAAAAAAAAAAABwAAAHgAQAAAADAjBmgQ+wJPMEACoAjV3VACCgCAxAiAI2CE4ZJgIIOrA0ZGEIAhglADIyAcQgIAOgAAAQAASAAAAAACAACQAAAAAAAAAAA==

> <PUBCHEM_IUPAC_OPENEYE_NAME>
N-(2,3-dimethylphenyl)-3-pyrrol-1-yl-propanamide

> <PUBCHEM_IUPAC_CAS_NAME>
N-(2,3-dimethylphenyl)-3-(1-pyrrolyl)propanamide

> <PUBCHEM_IUPAC_NAME>
N-(2,3-dimethylphenyl)-3-pyrrol-1-ylpropanamide

> <PUBCHEM_IUPAC_SYSTEMATIC_NAME>
N-(2,3-dimethylphenyl)-3-pyrrol-1-yl-propanamide

> <PUBCHEM_IUPAC_TRADITIONAL_NAME>
N-(2,3-dimethylphenyl)-3-pyrrol-1-yl-propionamide

> <PUBCHEM_IUPAC_INCHI>
InChI=1S/C15H18N2O/c1-12-6-5-7-14(13(12)2)16-15(18)8-11-17-9-3-4-10-17/h3-7,9-10H,8,11H2,1-2H3,(H,16,18)

> <PUBCHEM_IUPAC_INCHIKEY>
PECBCIXXXMZENM-UHFFFAOYSA-N

> <PUBCHEM_XLOGP3>
1.7

> <PUBCHEM_EXACT_MASS>
242.141913

> <PUBCHEM_MOLECULAR_FORMULA>
C15H18N2O

> <PUBCHEM_MOLECULAR_WEIGHT>
242.31622

> <PUBCHEM_OPENEYE_CAN_SMILES>
CC1=C(C(=CC=C1)NC(=O)CCN2C=CC=C2)C

> <PUBCHEM_OPENEYE_ISO_SMILES>
CC1=C(C(=CC=C1)NC(=O)CCN2C=CC=C2)C

> <PUBCHEM_CACTVS_TPSA>
34

> <PUBCHEM_MONOISOTOPIC_WEIGHT>
242.141913

> <PUBCHEM_TOTAL_CHARGE>
0

> <PUBCHEM_HEAVY_ATOM_COUNT>
18

> <PUBCHEM_ATOM_DEF_STEREO_COUNT>
0

> <PUBCHEM_ATOM_UDEF_STEREO_COUNT>
0

> <PUBCHEM_BOND_DEF_STEREO_COUNT>
0

> <PUBCHEM_BOND_UDEF_STEREO_COUNT>
0

> <PUBCHEM_ISOTOPIC_ATOM_COUNT>
0

> <PUBCHEM_COMPONENT_COUNT>
1

> <PUBCHEM_CACTVS_TAUTO_COUNT>
3

> <PUBCHEM_COORDINATE_TYPE>
1
5
255

> <PUBCHEM_BONDANNOTATIONS>
10  15  8
11  18  8
12  17  8
13  15  8
17  18  8
2  11  8
2  12  8
6  10  8
6  7  8
7  9  8
9  13  8

$$$$
46343164
  -OEChem-06121221472D

 33 34  0     0  0  0  0  0  0999 V2000
    5.4641   -0.7694    0.0000 O   0  0  0  0  0  0  0  0  0  0  0  0
    5.4641    2.2306    0.0000 N   0  0  0  0  0  0  0  0  0  0  0  0
    3.7320   -0.7694    0.0000 N   0  0  0  0  0  0  0  0  0  0  0  0
    5.4641    1.2306    0.0000 C   0  0  0  0  0  0  0  0  0  0  0  0
    4.5981    0.7306    0.0000 C   0  0  0  0  0  0  0  0  0  0  0  0
    4.5981   -0.2694    0.0000 C   0  0  0  0  0  0  0  0  0  0  0  0
    6.2731    2.8184    0.0000 C   0  0  0  0  0  0  0  0  0  0  0  0
    4.6551    2.8184    0.0000 C   0  0  0  0  0  0  0  0  0  0  0  0
    3.7320   -1.7694    0.0000 C   0  0  0  0  0  0  0  0  0  0  0  0
    2.8660   -2.2694    0.0000 C   0  0  0  0  0  0  0  0  0  0  0  0
    4.9641    3.7694    0.0000 C   0  0  0  0  0  0  0  0  0  0  0  0
    5.9641    3.7694    0.0000 C   0  0  0  0  0  0  0  0  0  0  0  0
    2.8660   -3.2694    0.0000 C   0  0  0  0  0  0  0  0  0  0  0  0
    4.5981   -2.2694    0.0000 C   0  0  0  0  0  0  0  0  0  0  0  0
    3.7320   -3.7694    0.0000 C   0  0  0  0  0  0  0  0  0  0  0  0
    4.5981   -3.2694    0.0000 C   0  0  0  0  0  0  0  0  0  0  0  0
    2.0000   -3.7694    0.0000 C   0  0  0  0  0  0  0  0  0  0  0  0
    5.6762    0.6480    0.0000 H   0  0  0  0  0  0  0  0  0  0  0  0
    6.0747    1.3382    0.0000 H   0  0  0  0  0  0  0  0  0  0  0  0
    4.3860    1.3132    0.0000 H   0  0  0  0  0  0  0  0  0  0  0  0
    3.9875    0.6229    0.0000 H   0  0  0  0  0  0  0  0  0  0  0  0
    6.8628    2.6268    0.0000 H   0  0  0  0  0  0  0  0  0  0  0  0
    4.0654    2.6268    0.0000 H   0  0  0  0  0  0  0  0  0  0  0  0
    3.1951   -0.4594    0.0000 H   0  0  0  0  0  0  0  0  0  0  0  0
    2.3291   -1.9594    0.0000 H   0  0  0  0  0  0  0  0  0  0  0  0
    6.3285    4.2710    0.0000 H   0  0  0  0  0  0  0  0  0  0  0  0
    4.5997    4.2710    0.0000 H   0  0  0  0  0  0  0  0  0  0  0  0
    5.1350   -1.9594    0.0000 H   0  0  0  0  0  0  0  0  0  0  0  0
    3.7320   -4.3894    0.0000 H   0  0  0  0  0  0  0  0  0  0  0  0
    5.1350   -3.5794    0.0000 H   0  0  0  0  0  0  0  0  0  0  0  0
    1.6900   -3.2325    0.0000 H   0  0  0  0  0  0  0  0  0  0  0  0
    1.4631   -4.0794    0.0000 H   0  0  0  0  0  0  0  0  0  0  0  0
    2.3100   -4.3064    0.0000 H   0  0  0  0  0  0  0  0  0  0  0  0
  1  6  2  0  0  0  0
  2  4  1  0  0  0  0
  2  7  1  0  0  0  0
  2  8  1  0  0  0  0
  3  6  1  0  0  0  0
  3  9  1  0  0  0  0
  3 24  1  0  0  0  0
  4  5  1  0  0  0  0
  4 18  1  0  0  0  0
  4 19  1  0  0  0  0
  5  6  1  0  0  0  0
  5 20  1  0  0  0  0
  5 21  1  0  0  0  0
  7 12  2  0  0  0  0
  7 22  1  0  0  0  0
  8 11  2  0  0  0  0
  8 23  1  0  0  0  0
  9 10  1  0  0  0  0
  9 14  2  0  0  0  0
 10 13  2  0  0  0  0
 10 25  1  0  0  0  0
 11 12  1  0  0  0  0
 11 27  1  0  0  0  0
 12 26  1  0  0  0  0
 13 15  1  0  0  0  0
 13 17  1  0  0  0  0
 14 16  1  0  0  0  0
 14 28  1  0  0  0  0
 15 16  2  0  0  0  0
 15 29  1  0  0  0  0
 16 30  1  0  0  0  0
 17 31  1  0  0  0  0
 17 32  1  0  0  0  0
 17 33  1  0  0  0  0
M  END
> <PUBCHEM_COMPOUND_CID>
46343164

> <PUBCHEM_COMPOUND_CANONICALIZED>
1

> <PUBCHEM_CACTVS_COMPLEXITY>
249

> <PUBCHEM_CACTVS_HBOND_ACCEPTOR>
1

> <PUBCHEM_CACTVS_HBOND_DONOR>
1

> <PUBCHEM_CACTVS_ROTATABLE_BOND>
4

> <PUBCHEM_CACTVS_SUBSKEYS>
AAADceBzIAAAAAAAAAAAAAAAAAAAAWAAAAAwAAAAAAAAAAABwAAAHgAQAAAADAjBmgQ+wJPMEACoAjV3VACCgCAxAiAI2CE4ZJgIIOrA0ZGEIAhglADIyAcQgAAOAAAAQAAAAAAAAACAAAAAAAAAAAAAAA==

> <PUBCHEM_IUPAC_OPENEYE_NAME>
N-(m-tolyl)-3-pyrrol-1-yl-propanamide

> <PUBCHEM_IUPAC_CAS_NAME>
N-(3-methylphenyl)-3-(1-pyrrolyl)propanamide

> <PUBCHEM_IUPAC_NAME>
N-(3-methylphenyl)-3-pyrrol-1-ylpropanamide

> <PUBCHEM_IUPAC_SYSTEMATIC_NAME>
N-(3-methylphenyl)-3-pyrrol-1-yl-propanamide

> <PUBCHEM_IUPAC_TRADITIONAL_NAME>
N-(m-tolyl)-3-pyrrol-1-yl-propionamide

> <PUBCHEM_IUPAC_INCHI>
InChI=1S/C14H16N2O/c1-12-5-4-6-13(11-12)15-14(17)7-10-16-8-2-3-9-16/h2-6,8-9,11H,7,10H2,1H3,(H,15,17)

> <PUBCHEM_IUPAC_INCHIKEY>
RNULKYNOWRKRFP-UHFFFAOYSA-N

> <PUBCHEM_XLOGP3>
2

> <PUBCHEM_EXACT_MASS>
228.126263

> <PUBCHEM_MOLECULAR_FORMULA>
C14H16N2O

> <PUBCHEM_MOLECULAR_WEIGHT>
228.28964

> <PUBCHEM_OPENEYE_CAN_SMILES>
CC1=CC(=CC=C1)NC(=O)CCN2C=CC=C2

> <PUBCHEM_OPENEYE_ISO_SMILES>
CC1=CC(=CC=C1)NC(=O)CCN2C=CC=C2

> <PUBCHEM_CACTVS_TPSA>
34

> <PUBCHEM_MONOISOTOPIC_WEIGHT>
228.126263

> <PUBCHEM_TOTAL_CHARGE>
0

> <PUBCHEM_HEAVY_ATOM_COUNT>
17

> <PUBCHEM_ATOM_DEF_STEREO_COUNT>
0

> <PUBCHEM_ATOM_UDEF_STEREO_COUNT>
0

> <PUBCHEM_BOND_DEF_STEREO_COUNT>
0

> <PUBCHEM_BOND_UDEF_STEREO_COUNT>
0

> <PUBCHEM_ISOTOPIC_ATOM_COUNT>
0

> <PUBCHEM_COMPONENT_COUNT>
1

> <PUBCHEM_CACTVS_TAUTO_COUNT>
3

> <PUBCHEM_COORDINATE_TYPE>
1
5
255

> <PUBCHEM_BONDANNOTATIONS>
10  13  8
11  12  8
13  15  8
14  16  8
15  16  8
2  7  8
2  8  8
7  12  8
8  11  8
9  10  8
9  14  8

$$$$
