53575495
  -OEChem-11301218042D

 34 34  0     0  0  0  0  0  0999 V2000
    2.0000   -1.2500    0.0000 Cl  0  0  0  0  0  0  0  0  0  0  0  0
    5.4641   -3.2500    0.0000 Cl  0  0  0  0  0  0  0  0  0  0  0  0
    5.4641   -0.2500    0.0000 O   0  0  0  0  0  0  0  0  0  0  0  0
    4.5981    1.2500    0.0000 N   0  0  0  0  0  0  0  0  0  0  0  0
    3.7320   -0.2500    0.0000 N   0  0  0  0  0  0  0  0  0  0  0  0
    5.4641    1.7500    0.0000 C   0  0  0  0  0  0  0  0  0  0  0  0
    3.7320    1.7500    0.0000 C   0  0  0  0  0  0  0  0  0  0  0  0
    4.5981    0.2500    0.0000 C   0  0  0  0  0  0  0  0  0  0  0  0
    5.4641    2.7500    0.0000 C   0  0  0  0  0  0  0  0  0  0  0  0
    3.7320    2.7500    0.0000 C   0  0  0  0  0  0  0  0  0  0  0  0
    3.7320   -1.2500    0.0000 C   0  0  0  0  0  0  0  0  0  0  0  0
    6.3301    3.2500    0.0000 C   0  0  0  0  0  0  0  0  0  0  0  0
    2.8660   -1.7500    0.0000 C   0  0  0  0  0  0  0  0  0  0  0  0
    4.5981   -1.7500    0.0000 C   0  0  0  0  0  0  0  0  0  0  0  0
    4.5981    3.2500    0.0000 C   0  0  0  0  0  0  0  0  0  0  0  0
    4.5981   -2.7500    0.0000 C   0  0  0  0  0  0  0  0  0  0  0  0
    2.8660   -2.7500    0.0000 C   0  0  0  0  0  0  0  0  0  0  0  0
    3.7320   -3.2500    0.0000 C   0  0  0  0  0  0  0  0  0  0  0  0
    5.6762    1.1674    0.0000 H   0  0  0  0  0  0  0  0  0  0  0  0
    6.0747    1.8577    0.0000 H   0  0  0  0  0  0  0  0  0  0  0  0
    3.1215    1.8577    0.0000 H   0  0  0  0  0  0  0  0  0  0  0  0
    3.5200    1.1674    0.0000 H   0  0  0  0  0  0  0  0  0  0  0  0
    4.3520    2.7500    0.0000 H   0  0  0  0  0  0  0  0  0  0  0  0
    3.7320    3.3700    0.0000 H   0  0  0  0  0  0  0  0  0  0  0  0
    3.1120    2.7500    0.0000 H   0  0  0  0  0  0  0  0  0  0  0  0
    3.1951    0.0600    0.0000 H   0  0  0  0  0  0  0  0  0  0  0  0
    6.6401    2.7131    0.0000 H   0  0  0  0  0  0  0  0  0  0  0  0
    6.8671    3.5600    0.0000 H   0  0  0  0  0  0  0  0  0  0  0  0
    6.0201    3.7869    0.0000 H   0  0  0  0  0  0  0  0  0  0  0  0
    5.1350   -1.4400    0.0000 H   0  0  0  0  0  0  0  0  0  0  0  0
    4.5981    3.8700    0.0000 H   0  0  0  0  0  0  0  0  0  0  0  0
    4.0611    2.9400    0.0000 H   0  0  0  0  0  0  0  0  0  0  0  0
    2.3291   -3.0600    0.0000 H   0  0  0  0  0  0  0  0  0  0  0  0
    3.7320   -3.8700    0.0000 H   0  0  0  0  0  0  0  0  0  0  0  0
  1 13  1  0  0  0  0
  2 16  1  0  0  0  0
  3  8  2  0  0  0  0
  4  6  1  0  0  0  0
  4  7  1  0  0  0  0
  4  8  1  0  0  0  0
  5  8  1  0  0  0  0
  5 11  1  0  0  0  0
  5 26  1  0  0  0  0
  6  9  1  0  0  0  0
  6 19  1  0  0  0  0
  6 20  1  0  0  0  0
  7 10  1  0  0  0  0
  7 21  1  0  0  0  0
  7 22  1  0  0  0  0
  9 12  1  0  0  0  0
  9 15  2  0  0  0  0
 10 23  1  0  0  0  0
 10 24  1  0  0  0  0
 10 25  1  0  0  0  0
 11 13  2  0  0  0  0
 11 14  1  0  0  0  0
 12 27  1  0  0  0  0
 12 28  1  0  0  0  0
 12 29  1  0  0  0  0
 13 17  1  0  0  0  0
 14 16  2  0  0  0  0
 14 30  1  0  0  0  0
 15 31  1  0  0  0  0
 15 32  1  0  0  0  0
 16 18  1  0  0  0  0
 17 18  2  0  0  0  0
 17 33  1  0  0  0  0
 18 34  1  0  0  0  0
M  END
> <PUBCHEM_COMPOUND_CID>
53575495

> <PUBCHEM_COMPOUND_CANONICALIZED>
1

> <PUBCHEM_CACTVS_COMPLEXITY>
309

> <PUBCHEM_CACTVS_HBOND_ACCEPTOR>
1

> <PUBCHEM_CACTVS_HBOND_DONOR>
1

> <PUBCHEM_CACTVS_ROTATABLE_BOND>
4

> <PUBCHEM_CACTVS_SUBSKEYS>
AAADceBzIAAGAAAAAAAAAAAAAAAAAAAAAAAwAAAAAAAAAAABAAAAHgIQAAAADArBECQzwIPAAACIAiRCUACCAAAhBwAIiAAIZoiIICLBk5HEIAholgLIyCcQAAAAAAAQAAIAABAAACAABAAAIAAAAAAAAA==

> <PUBCHEM_IUPAC_OPENEYE_NAME>
3-(2,5-dichlorophenyl)-1-ethyl-1-(2-methylallyl)urea

> <PUBCHEM_IUPAC_CAS_NAME>
3-(2,5-dichlorophenyl)-1-ethyl-1-(2-methylprop-2-enyl)urea

> <PUBCHEM_IUPAC_NAME>
3-(2,5-dichlorophenyl)-1-ethyl-1-(2-methylprop-2-enyl)urea

> <PUBCHEM_IUPAC_SYSTEMATIC_NAME>
3-[2,5-bis(chloranyl)phenyl]-1-ethyl-1-(2-methylprop-2-enyl)urea

> <PUBCHEM_IUPAC_TRADITIONAL_NAME>
3-(2,5-dichlorophenyl)-1-ethyl-1-(2-methylallyl)urea

> <PUBCHEM_IUPAC_INCHI>
InChI=1S/C13H16Cl2N2O/c1-4-17(8-9(2)3)13(18)16-12-7-10(14)5-6-11(12)15/h5-7H,2,4,8H2,1,3H3,(H,16,18)

> <PUBCHEM_IUPAC_INCHIKEY>
MXCZPCZCDUWLRT-UHFFFAOYSA-N

> <PUBCHEM_XLOGP3>
3.8

> <PUBCHEM_EXACT_MASS>
286.063969

> <PUBCHEM_MOLECULAR_FORMULA>
C13H16Cl2N2O

> <PUBCHEM_MOLECULAR_WEIGHT>
287.18494

> <PUBCHEM_OPENEYE_CAN_SMILES>
CCN(CC(=C)C)C(=O)NC1=C(C=CC(=C1)Cl)Cl

> <PUBCHEM_OPENEYE_ISO_SMILES>
CCN(CC(=C)C)C(=O)NC1=C(C=CC(=C1)Cl)Cl

> <PUBCHEM_CACTVS_TPSA>
32.3

> <PUBCHEM_MONOISOTOPIC_WEIGHT>
286.063969

> <PUBCHEM_TOTAL_CHARGE>
0

> <PUBCHEM_HEAVY_ATOM_COUNT>
18

> <PUBCHEM_ATOM_DEF_STEREO_COUNT>
0

> <PUBCHEM_ATOM_UDEF_STEREO_COUNT>
0

> <PUBCHEM_BOND_DEF_STEREO_COUNT>
0

> <PUBCHEM_BOND_UDEF_STEREO_COUNT>
0

> <PUBCHEM_ISOTOPIC_ATOM_COUNT>
0

> <PUBCHEM_COMPONENT_COUNT>
1

> <PUBCHEM_CACTVS_TAUTO_COUNT>
2

> <PUBCHEM_COORDINATE_TYPE>
1
5
255

> <PUBCHEM_BONDANNOTATIONS>
11  13  8
11  14  8
13  17  8
14  16  8
16  18  8
17  18  8

$$$$
53583460
  -OEChem-11301218052D

 35 37  0     0  0  0  0  0  0999 V2000
    5.8228    0.7859    0.0000 O   0  0  0  0  0  0  0  0  0  0  0  0
    4.9568   -0.7141    0.0000 N   0  0  0  0  0  0  0  0  0  0  0  0
    6.6888   -0.7141    0.0000 N   0  0  0  0  0  0  0  0  0  0  0  0
   10.2331    1.0907    0.0000 N   0  0  0  0  0  0  0  0  0  0  0  0
    3.2247   -0.7141    0.0000 C   0  0  0  0  0  0  0  0  0  0  0  0
    2.2588   -0.4552    0.0000 C   0  0  0  0  0  0  0  0  0  0  0  0
    2.9659   -1.6800    0.0000 C   0  0  0  0  0  0  0  0  0  0  0  0
    2.0000   -1.4212    0.0000 C   0  0  0  0  0  0  0  0  0  0  0  0
    4.0908   -0.2141    0.0000 C   0  0  0  0  0  0  0  0  0  0  0  0
    5.8228   -0.2141    0.0000 C   0  0  0  0  0  0  0  0  0  0  0  0
    7.5549   -0.2141    0.0000 C   0  0  0  0  0  0  0  0  0  0  0  0
    9.2869   -0.2141    0.0000 C   0  0  0  0  0  0  0  0  0  0  0  0
    9.2869    0.7859    0.0000 C   0  0  0  0  0  0  0  0  0  0  0  0
    8.4209   -0.7141    0.0000 C   0  0  0  0  0  0  0  0  0  0  0  0
    7.5549    0.7859    0.0000 C   0  0  0  0  0  0  0  0  0  0  0  0
    8.4209    1.2859    0.0000 C   0  0  0  0  0  0  0  0  0  0  0  0
   10.2331   -0.5188    0.0000 C   0  0  0  0  0  0  0  0  0  0  0  0
   10.8168    0.2859    0.0000 C   0  0  0  0  0  0  0  0  0  0  0  0
    3.1438   -0.0994    0.0000 H   0  0  0  0  0  0  0  0  0  0  0  0
    2.4193    0.1436    0.0000 H   0  0  0  0  0  0  0  0  0  0  0  0
    1.6600   -0.2948    0.0000 H   0  0  0  0  0  0  0  0  0  0  0  0
    2.8055   -2.2789    0.0000 H   0  0  0  0  0  0  0  0  0  0  0  0
    3.5648   -1.8405    0.0000 H   0  0  0  0  0  0  0  0  0  0  0  0
    1.4011   -1.2607    0.0000 H   0  0  0  0  0  0  0  0  0  0  0  0
    1.8395   -2.0200    0.0000 H   0  0  0  0  0  0  0  0  0  0  0  0
    4.4893    0.2609    0.0000 H   0  0  0  0  0  0  0  0  0  0  0  0
    3.6922    0.2609    0.0000 H   0  0  0  0  0  0  0  0  0  0  0  0
    4.9568   -1.3341    0.0000 H   0  0  0  0  0  0  0  0  0  0  0  0
    6.6888   -1.3341    0.0000 H   0  0  0  0  0  0  0  0  0  0  0  0
    8.4209   -1.3341    0.0000 H   0  0  0  0  0  0  0  0  0  0  0  0
    7.0179    1.0959    0.0000 H   0  0  0  0  0  0  0  0  0  0  0  0
    8.4209    1.9059    0.0000 H   0  0  0  0  0  0  0  0  0  0  0  0
   10.4258   -1.1081    0.0000 H   0  0  0  0  0  0  0  0  0  0  0  0
   10.4258    1.6800    0.0000 H   0  0  0  0  0  0  0  0  0  0  0  0
   11.4368    0.2859    0.0000 H   0  0  0  0  0  0  0  0  0  0  0  0
  1 10  2  0  0  0  0
  2  9  1  0  0  0  0
  2 10  1  0  0  0  0
  2 28  1  0  0  0  0
  3 10  1  0  0  0  0
  3 11  1  0  0  0  0
  3 29  1  0  0  0  0
  4 13  1  0  0  0  0
  4 18  1  0  0  0  0
  4 34  1  0  0  0  0
  5  6  1  0  0  0  0
  5  7  1  0  0  0  0
  5  9  1  0  0  0  0
  5 19  1  0  0  0  0
  6  8  1  0  0  0  0
  6 20  1  0  0  0  0
  6 21  1  0  0  0  0
  7  8  1  0  0  0  0
  7 22  1  0  0  0  0
  7 23  1  0  0  0  0
  8 24  1  0  0  0  0
  8 25  1  0  0  0  0
  9 26  1  0  0  0  0
  9 27  1  0  0  0  0
 11 14  2  0  0  0  0
 11 15  1  0  0  0  0
 12 13  2  0  0  0  0
 12 14  1  0  0  0  0
 12 17  1  0  0  0  0
 13 16  1  0  0  0  0
 14 30  1  0  0  0  0
 15 16  2  0  0  0  0
 15 31  1  0  0  0  0
 16 32  1  0  0  0  0
 17 18  2  0  0  0  0
 17 33  1  0  0  0  0
 18 35  1  0  0  0  0
M  END
> <PUBCHEM_COMPOUND_CID>
53583460

> <PUBCHEM_COMPOUND_CANONICALIZED>
1

> <PUBCHEM_CACTVS_COMPLEXITY>
303

> <PUBCHEM_CACTVS_HBOND_ACCEPTOR>
1

> <PUBCHEM_CACTVS_HBOND_DONOR>
3

> <PUBCHEM_CACTVS_ROTATABLE_BOND>
3

> <PUBCHEM_CACTVS_SUBSKEYS>
AAADceBzIAAAAAAAAAAAAAAAAABgAWAAAAAwAAAAAAAAAFgB8AAAHgAQAAAADQjBHgQ9wPLJkACoAzRnVACCgCAxAiAI2aA4ZJiIIOLAkZGEIAholgLIyCcQgIAOAACAQAACAAAAAQCAAAQAAAAAAAAAAA==

> <PUBCHEM_IUPAC_OPENEYE_NAME>
1-(cyclobutylmethyl)-3-(1H-indol-5-yl)urea

> <PUBCHEM_IUPAC_CAS_NAME>
1-(cyclobutylmethyl)-3-(1H-indol-5-yl)urea

> <PUBCHEM_IUPAC_NAME>
1-(cyclobutylmethyl)-3-(1H-indol-5-yl)urea

> <PUBCHEM_IUPAC_SYSTEMATIC_NAME>
1-(cyclobutylmethyl)-3-(1H-indol-5-yl)urea

> <PUBCHEM_IUPAC_TRADITIONAL_NAME>
1-(cyclobutylmethyl)-3-(1H-indol-5-yl)urea

> <PUBCHEM_IUPAC_INCHI>
InChI=1S/C14H17N3O/c18-14(16-9-10-2-1-3-10)17-12-4-5-13-11(8-12)6-7-15-13/h4-8,10,15H,1-3,9H2,(H2,16,17,18)

> <PUBCHEM_IUPAC_INCHIKEY>
YAXCIUGYVJPHNT-UHFFFAOYSA-N

> <PUBCHEM_XLOGP3>
2.2

> <PUBCHEM_EXACT_MASS>
243.137162

> <PUBCHEM_MOLECULAR_FORMULA>
C14H17N3O

> <PUBCHEM_MOLECULAR_WEIGHT>
243.30428

> <PUBCHEM_OPENEYE_CAN_SMILES>
C1CC(C1)CNC(=O)NC2=CC3=C(C=C2)NC=C3

> <PUBCHEM_OPENEYE_ISO_SMILES>
C1CC(C1)CNC(=O)NC2=CC3=C(C=C2)NC=C3

> <PUBCHEM_CACTVS_TPSA>
56.9

> <PUBCHEM_MONOISOTOPIC_WEIGHT>
243.137162

> <PUBCHEM_TOTAL_CHARGE>
0

> <PUBCHEM_HEAVY_ATOM_COUNT>
18

> <PUBCHEM_ATOM_DEF_STEREO_COUNT>
0

> <PUBCHEM_ATOM_UDEF_STEREO_COUNT>
0

> <PUBCHEM_BOND_DEF_STEREO_COUNT>
0

> <PUBCHEM_BOND_UDEF_STEREO_COUNT>
0

> <PUBCHEM_ISOTOPIC_ATOM_COUNT>
0

> <PUBCHEM_COMPONENT_COUNT>
1

> <PUBCHEM_CACTVS_TAUTO_COUNT>
3

> <PUBCHEM_COORDINATE_TYPE>
1
5
255

> <PUBCHEM_BONDANNOTATIONS>
11  14  8
11  15  8
12  13  8
12  14  8
12  17  8
13  16  8
15  16  8
17  18  8
4  13  8
4  18  8

$$$$
53589430
  -OEChem-11301218052D

 41 44  0     0  0  0  0  0  0999 V2000
    7.0468   -2.1012    0.0000 O   0  0  0  0  0  0  0  0  0  0  0  0
    6.1808   -0.6012    0.0000 N   0  0  0  0  0  0  0  0  0  0  0  0
    3.5827    0.8988    0.0000 N   0  0  0  0  0  0  0  0  0  0  0  0
   10.5911    0.7035    0.0000 N   0  0  0  0  0  0  0  0  0  0  0  0
    4.4487    0.3988    0.0000 C   0  0  0  0  0  0  0  0  0  0  0  0
    5.3147    0.8988    0.0000 C   0  0  0  0  0  0  0  0  0  0  0  0
    4.4487   -0.6012    0.0000 C   0  0  0  0  0  0  0  0  0  0  0  0
    6.1808    0.3988    0.0000 C   0  0  0  0  0  0  0  0  0  0  0  0
    5.3147   -1.1012    0.0000 C   0  0  0  0  0  0  0  0  0  0  0  0
    7.0468   -1.1012    0.0000 C   0  0  0  0  0  0  0  0  0  0  0  0
    3.4782    1.8933    0.0000 C   0  0  0  0  0  0  0  0  0  0  0  0
    2.6691    0.4920    0.0000 C   0  0  0  0  0  0  0  0  0  0  0  0
    7.9128   -0.6012    0.0000 C   0  0  0  0  0  0  0  0  0  0  0  0
    2.0000    1.2352    0.0000 C   0  0  0  0  0  0  0  0  0  0  0  0
    2.5000    2.1012    0.0000 C   0  0  0  0  0  0  0  0  0  0  0  0
    8.7788   -1.1012    0.0000 C   0  0  0  0  0  0  0  0  0  0  0  0
    7.9128    0.3988    0.0000 C   0  0  0  0  0  0  0  0  0  0  0  0
    9.6448   -0.6012    0.0000 C   0  0  0  0  0  0  0  0  0  0  0  0
    9.6448    0.3988    0.0000 C   0  0  0  0  0  0  0  0  0  0  0  0
    8.7788    0.8988    0.0000 C   0  0  0  0  0  0  0  0  0  0  0  0
   10.5911   -0.9059    0.0000 C   0  0  0  0  0  0  0  0  0  0  0  0
   11.1747   -0.1012    0.0000 C   0  0  0  0  0  0  0  0  0  0  0  0
    3.9118    0.0888    0.0000 H   0  0  0  0  0  0  0  0  0  0  0  0
    3.8381   -0.4936    0.0000 H   0  0  0  0  0  0  0  0  0  0  0  0
    4.2366   -1.1838    0.0000 H   0  0  0  0  0  0  0  0  0  0  0  0
    5.7133    1.3737    0.0000 H   0  0  0  0  0  0  0  0  0  0  0  0
    4.9162    1.3737    0.0000 H   0  0  0  0  0  0  0  0  0  0  0  0
    4.9162   -1.5762    0.0000 H   0  0  0  0  0  0  0  0  0  0  0  0
    5.7133   -1.5762    0.0000 H   0  0  0  0  0  0  0  0  0  0  0  0
    6.7913    0.2911    0.0000 H   0  0  0  0  0  0  0  0  0  0  0  0
    6.3928    0.9814    0.0000 H   0  0  0  0  0  0  0  0  0  0  0  0
    2.5402   -0.1144    0.0000 H   0  0  0  0  0  0  0  0  0  0  0  0
    3.9389    2.3082    0.0000 H   0  0  0  0  0  0  0  0  0  0  0  0
    2.2478    2.6676    0.0000 H   0  0  0  0  0  0  0  0  0  0  0  0
    1.3834    1.1704    0.0000 H   0  0  0  0  0  0  0  0  0  0  0  0
    8.7788   -1.7212    0.0000 H   0  0  0  0  0  0  0  0  0  0  0  0
    7.3759    0.7088    0.0000 H   0  0  0  0  0  0  0  0  0  0  0  0
    8.7788    1.5188    0.0000 H   0  0  0  0  0  0  0  0  0  0  0  0
   10.7837   -1.4953    0.0000 H   0  0  0  0  0  0  0  0  0  0  0  0
   10.7837    1.2928    0.0000 H   0  0  0  0  0  0  0  0  0  0  0  0
   11.7947   -0.1012    0.0000 H   0  0  0  0  0  0  0  0  0  0  0  0
  1 10  2  0  0  0  0
  2  8  1  0  0  0  0
  2  9  1  0  0  0  0
  2 10  1  0  0  0  0
  3  5  1  0  0  0  0
  3 11  1  0  0  0  0
  3 12  1  0  0  0  0
  4 19  1  0  0  0  0
  4 22  1  0  0  0  0
  4 40  1  0  0  0  0
  5  6  1  0  0  0  0
  5  7  1  0  0  0  0
  5 23  1  0  0  0  0
  6  8  1  0  0  0  0
  6 26  1  0  0  0  0
  6 27  1  0  0  0  0
  7  9  1  0  0  0  0
  7 24  1  0  0  0  0
  7 25  1  0  0  0  0
  8 30  1  0  0  0  0
  8 31  1  0  0  0  0
  9 28  1  0  0  0  0
  9 29  1  0  0  0  0
 10 13  1  0  0  0  0
 11 15  2  0  0  0  0
 11 33  1  0  0  0  0
 12 14  2  0  0  0  0
 12 32  1  0  0  0  0
 13 16  2  0  0  0  0
 13 17  1  0  0  0  0
 14 15  1  0  0  0  0
 14 35  1  0  0  0  0
 15 34  1  0  0  0  0
 16 18  1  0  0  0  0
 16 36  1  0  0  0  0
 17 20  2  0  0  0  0
 17 37  1  0  0  0  0
 18 19  2  0  0  0  0
 18 21  1  0  0  0  0
 19 20  1  0  0  0  0
 20 38  1  0  0  0  0
 21 22  2  0  0  0  0
 21 39  1  0  0  0  0
 22 41  1  0  0  0  0
M  END
> <PUBCHEM_COMPOUND_CID>
53589430

> <PUBCHEM_COMPOUND_CANONICALIZED>
1

> <PUBCHEM_CACTVS_COMPLEXITY>
399

> <PUBCHEM_CACTVS_HBOND_ACCEPTOR>
1

> <PUBCHEM_CACTVS_HBOND_DONOR>
1

> <PUBCHEM_CACTVS_ROTATABLE_BOND>
2

> <PUBCHEM_CACTVS_SUBSKEYS>
AAADceB7IAAAAAAAAAAAAAAAAAAAAWLAAAA8QAAAAAAAAFgB/AAAHgAQAAAADCjBngQ8wPPNkACoAzV3VACCgCA1AiAI2aE4ZNgIIPLA1ZGEIQhglgDIyYcYicCeCAACAAACAAAQAAQAAAQAAAAAAAAAAA==

> <PUBCHEM_IUPAC_OPENEYE_NAME>
1H-indol-5-yl-(4-pyrrol-1-yl-1-piperidyl)methanone

> <PUBCHEM_IUPAC_CAS_NAME>
1H-indol-5-yl-[4-(1-pyrrolyl)-1-piperidinyl]methanone

> <PUBCHEM_IUPAC_NAME>
1H-indol-5-yl-(4-pyrrol-1-ylpiperidin-1-yl)methanone

> <PUBCHEM_IUPAC_SYSTEMATIC_NAME>
1H-indol-5-yl-(4-pyrrol-1-ylpiperidin-1-yl)methanone

> <PUBCHEM_IUPAC_TRADITIONAL_NAME>
1H-indol-5-yl-(4-pyrrol-1-ylpiperidino)methanone

> <PUBCHEM_IUPAC_INCHI>
InChI=1S/C18H19N3O/c22-18(15-3-4-17-14(13-15)5-8-19-17)21-11-6-16(7-12-21)20-9-1-2-10-20/h1-5,8-10,13,16,19H,6-7,11-12H2

> <PUBCHEM_IUPAC_INCHIKEY>
YYQASHVMPWQARZ-UHFFFAOYSA-N

> <PUBCHEM_XLOGP3>
2.3

> <PUBCHEM_EXACT_MASS>
293.152812

> <PUBCHEM_MOLECULAR_FORMULA>
C18H19N3O

> <PUBCHEM_MOLECULAR_WEIGHT>
293.36296

> <PUBCHEM_OPENEYE_CAN_SMILES>
C1CN(CCC1N2C=CC=C2)C(=O)C3=CC4=C(C=C3)NC=C4

> <PUBCHEM_OPENEYE_ISO_SMILES>
C1CN(CCC1N2C=CC=C2)C(=O)C3=CC4=C(C=C3)NC=C4

> <PUBCHEM_CACTVS_TPSA>
41

> <PUBCHEM_MONOISOTOPIC_WEIGHT>
293.152812

> <PUBCHEM_TOTAL_CHARGE>
0

> <PUBCHEM_HEAVY_ATOM_COUNT>
22

> <PUBCHEM_ATOM_DEF_STEREO_COUNT>
0

> <PUBCHEM_ATOM_UDEF_STEREO_COUNT>
0

> <PUBCHEM_BOND_DEF_STEREO_COUNT>
0

> <PUBCHEM_BOND_UDEF_STEREO_COUNT>
0

> <PUBCHEM_ISOTOPIC_ATOM_COUNT>
0

> <PUBCHEM_COMPONENT_COUNT>
1

> <PUBCHEM_CACTVS_TAUTO_COUNT>
3

> <PUBCHEM_COORDINATE_TYPE>
1
5
255

> <PUBCHEM_BONDANNOTATIONS>
11  15  8
12  14  8
13  16  8
13  17  8
14  15  8
16  18  8
17  20  8
18  19  8
18  21  8
19  20  8
21  22  8
3  11  8
3  12  8
4  19  8
4  22  8

$$$$
