9690558
  -OEChem-11301217082D

 47 50  0     1  0  0  0  0  0999 V2000
    9.7619   -4.7273    0.0000 Br  0  0  0  0  0  0  0  0  0  0  0  0
    4.4026    2.1681    0.0000 O   0  0  0  0  0  0  0  0  0  0  0  0
    6.7485    1.0763    0.0000 O   0  0  0  0  0  0  0  0  0  0  0  0
    6.7523    3.2518    0.0000 O   0  0  0  0  0  0  0  0  0  0  0  0
    3.7066    4.1373    0.0000 O   0  0  0  0  0  0  0  0  0  0  0  0
    4.6783    0.4076    0.0000 N   0  0  0  0  0  0  0  0  0  0  0  0
    4.6783   -1.2019    0.0000 N   0  0  0  0  0  0  0  0  0  0  0  0
    6.2619   -0.3972    0.0000 N   0  0  0  0  0  0  0  0  0  0  0  0
    2.8660    0.6028    0.0000 N   0  0  0  0  0  0  0  0  0  0  0  0
    2.0000   -0.8972    0.0000 N   0  0  0  0  0  0  0  0  0  0  0  0
    6.7619   -1.2632    0.0000 N   0  0  0  0  0  0  0  0  0  0  0  0
    2.8660   -2.3972    0.0000 N   0  0  0  0  0  0  0  0  0  0  0  0
    5.9405    1.6654    0.0000 C   0  0  2  0  0  0  0  0  0  0  0  0
    4.9889    1.3581    0.0000 C   0  0  2  0  0  0  0  0  0  0  0  0
    5.9422    2.6654    0.0000 C   0  0  2  0  0  0  0  0  0  0  0  0
    4.9917    2.9761    0.0000 C   0  0  2  0  0  0  0  0  0  0  0  0
    4.6844    3.9277    0.0000 C   0  0  0  0  0  0  0  0  0  0  0  0
    3.7320    0.1028    0.0000 C   0  0  0  0  0  0  0  0  0  0  0  0
    5.2619   -0.3972    0.0000 C   0  0  0  0  0  0  0  0  0  0  0  0
    3.7320   -0.8972    0.0000 C   0  0  0  0  0  0  0  0  0  0  0  0
    2.8660   -1.3972    0.0000 C   0  0  0  0  0  0  0  0  0  0  0  0
    2.0000    0.1028    0.0000 C   0  0  0  0  0  0  0  0  0  0  0  0
    7.7619   -1.2632    0.0000 C   0  0  0  0  0  0  0  0  0  0  0  0
    8.2619   -2.1292    0.0000 C   0  0  0  0  0  0  0  0  0  0  0  0
    7.7619   -2.9952    0.0000 C   0  0  0  0  0  0  0  0  0  0  0  0
    9.2619   -2.1292    0.0000 C   0  0  0  0  0  0  0  0  0  0  0  0
    8.2619   -3.8613    0.0000 C   0  0  0  0  0  0  0  0  0  0  0  0
    9.7619   -2.9952    0.0000 C   0  0  0  0  0  0  0  0  0  0  0  0
    9.2619   -3.8613    0.0000 C   0  0  0  0  0  0  0  0  0  0  0  0
    5.8425    1.0533    0.0000 H   0  0  0  0  0  0  0  0  0  0  0  0
    5.4266    0.9189    0.0000 H   0  0  0  0  0  0  0  0  0  0  0  0
    6.4942    2.3830    0.0000 H   0  0  0  0  0  0  0  0  0  0  0  0
    4.3795    3.0742    0.0000 H   0  0  0  0  0  0  0  0  0  0  0  0
    5.2985    4.0129    0.0000 H   0  0  0  0  0  0  0  0  0  0  0  0
    4.7071    4.5473    0.0000 H   0  0  0  0  0  0  0  0  0  0  0  0
    7.3154    1.3275    0.0000 H   0  0  0  0  0  0  0  0  0  0  0  0
    6.6886    3.8686    0.0000 H   0  0  0  0  0  0  0  0  0  0  0  0
    3.5160    4.7273    0.0000 H   0  0  0  0  0  0  0  0  0  0  0  0
    6.5719    0.1398    0.0000 H   0  0  0  0  0  0  0  0  0  0  0  0
    1.4631    0.4128    0.0000 H   0  0  0  0  0  0  0  0  0  0  0  0
    2.3291   -2.7072    0.0000 H   0  0  0  0  0  0  0  0  0  0  0  0
    3.4030   -2.7072    0.0000 H   0  0  0  0  0  0  0  0  0  0  0  0
    8.0719   -0.7263    0.0000 H   0  0  0  0  0  0  0  0  0  0  0  0
    7.1419   -2.9952    0.0000 H   0  0  0  0  0  0  0  0  0  0  0  0
    9.5719   -1.5923    0.0000 H   0  0  0  0  0  0  0  0  0  0  0  0
    7.9519   -4.3982    0.0000 H   0  0  0  0  0  0  0  0  0  0  0  0
   10.3819   -2.9952    0.0000 H   0  0  0  0  0  0  0  0  0  0  0  0
  1 29  1  0  0  0  0
  2 14  1  0  0  0  0
  2 16  1  0  0  0  0
 13  3  1  6  0  0  0
  3 36  1  0  0  0  0
 15  4  1  6  0  0  0
  4 37  1  0  0  0  0
  5 17  1  0  0  0  0
  5 38  1  0  0  0  0
 14  6  1  1  0  0  0
  6 18  1  0  0  0  0
  6 19  1  0  0  0  0
  7 19  2  0  0  0  0
  7 20  1  0  0  0  0
  8 11  1  0  0  0  0
  8 19  1  0  0  0  0
  8 39  1  0  0  0  0
  9 18  2  0  0  0  0
  9 22  1  0  0  0  0
 10 21  1  0  0  0  0
 10 22  2  0  0  0  0
 11 23  2  0  0  0  0
 12 21  1  0  0  0  0
 12 41  1  0  0  0  0
 12 42  1  0  0  0  0
 13 14  1  0  0  0  0
 13 15  1  0  0  0  0
 13 30  1  0  0  0  0
 14 31  1  0  0  0  0
 15 16  1  0  0  0  0
 15 32  1  0  0  0  0
 16 17  1  1  0  0  0
 16 33  1  0  0  0  0
 17 34  1  0  0  0  0
 17 35  1  0  0  0  0
 18 20  1  0  0  0  0
 20 21  2  0  0  0  0
 22 40  1  0  0  0  0
 23 24  1  0  0  0  0
 23 43  1  0  0  0  0
 24 25  2  0  0  0  0
 24 26  1  0  0  0  0
 25 27  1  0  0  0  0
 25 44  1  0  0  0  0
 26 28  2  0  0  0  0
 26 45  1  0  0  0  0
 27 29  2  0  0  0  0
 27 46  1  0  0  0  0
 28 29  1  0  0  0  0
 28 47  1  0  0  0  0
M  END
> <PUBCHEM_COMPOUND_CID>
9690558

> <PUBCHEM_COMPOUND_CANONICALIZED>
1

> <PUBCHEM_CACTVS_COMPLEXITY>
582

> <PUBCHEM_CACTVS_HBOND_ACCEPTOR>
10

> <PUBCHEM_CACTVS_HBOND_DONOR>
5

> <PUBCHEM_CACTVS_ROTATABLE_BOND>
5

> <PUBCHEM_CACTVS_SUBSKEYS>
AAADceB7uAAAEAAAAAAAAAAAAAAAAWJAAAA8QAAAAAAAAFgB/AAAHgBYCAABrBzhnwY18L9uFgCgAzZjZACSgC0xEKQN2CAoVLiLeKLA2VCeZAgviALbijfwsAIOAgAAAAAAAAAEAAAAAAAAAAAAAAAAAA==

> <PUBCHEM_IUPAC_OPENEYE_NAME>
(2S,3S,4R,5S)-2-[6-amino-8-[(2E)-2-[(4-bromophenyl)methylene]hydrazino]purin-9-yl]-5-(hydroxymethyl)tetrahydrofuran-3,4-diol

> <PUBCHEM_IUPAC_CAS_NAME>
(2S,3S,4R,5S)-2-[6-amino-8-[(2E)-2-[(4-bromophenyl)methylidene]hydrazinyl]-9-purinyl]-5-(hydroxymethyl)oxolane-3,4-diol

> <PUBCHEM_IUPAC_NAME>
(2S,3S,4R,5S)-2-[6-amino-8-[(2E)-2-[(4-bromophenyl)methylidene]hydrazinyl]purin-9-yl]-5-(hydroxymethyl)oxolane-3,4-diol

> <PUBCHEM_IUPAC_SYSTEMATIC_NAME>
(2S,3S,4R,5S)-2-[6-azanyl-8-[(2E)-2-[(4-bromophenyl)methylidene]hydrazinyl]purin-9-yl]-5-(hydroxymethyl)oxolane-3,4-diol

> <PUBCHEM_IUPAC_TRADITIONAL_NAME>
(2S,3S,4R,5S)-2-[6-amino-8-[(N'E)-N'-(4-bromobenzylidene)hydrazino]purin-9-yl]-5-methylol-tetrahydrofuran-3,4-diol

> <PUBCHEM_IUPAC_INCHI>
InChI=1S/C17H18BrN7O4/c18-9-3-1-8(2-4-9)5-22-24-17-23-11-14(19)20-7-21-15(11)25(17)16-13(28)12(27)10(6-26)29-16/h1-5,7,10,12-13,16,26-28H,6H2,(H,23,24)(H2,19,20,21)/b22-5+/t10-,12-,13-,16-/m0/s1

> <PUBCHEM_IUPAC_INCHIKEY>
NURMOILNLGAJAV-VJQDGHOKSA-N

> <PUBCHEM_XLOGP3>
1.6

> <PUBCHEM_EXACT_MASS>
463.060364

> <PUBCHEM_MOLECULAR_FORMULA>
C17H18BrN7O4

> <PUBCHEM_MOLECULAR_WEIGHT>
464.27332

> <PUBCHEM_OPENEYE_CAN_SMILES>
C1=CC(=CC=C1C=NNC2=NC3=C(N2C4C(C(C(O4)CO)O)O)N=CN=C3N)Br

> <PUBCHEM_OPENEYE_ISO_SMILES>
C1=CC(=CC=C1/C=N/NC2=NC3=C(N2[C@@H]4[C@H]([C@H]([C@@H](O4)CO)O)O)N=CN=C3N)Br

> <PUBCHEM_CACTVS_TPSA>
164

> <PUBCHEM_MONOISOTOPIC_WEIGHT>
463.060364

> <PUBCHEM_TOTAL_CHARGE>
0

> <PUBCHEM_HEAVY_ATOM_COUNT>
29

> <PUBCHEM_ATOM_DEF_STEREO_COUNT>
4

> <PUBCHEM_ATOM_UDEF_STEREO_COUNT>
0

> <PUBCHEM_BOND_DEF_STEREO_COUNT>
1

> <PUBCHEM_BOND_UDEF_STEREO_COUNT>
0

> <PUBCHEM_ISOTOPIC_ATOM_COUNT>
0

> <PUBCHEM_COMPONENT_COUNT>
1

> <PUBCHEM_CACTVS_TAUTO_COUNT>
6

> <PUBCHEM_COORDINATE_TYPE>
1
5
255

> <PUBCHEM_BONDANNOTATIONS>
10  21  8
10  22  8
16  17  5
18  20  8
20  21  8
24  25  8
24  26  8
25  27  8
26  28  8
27  29  8
28  29  8
13  3  6
15  4  6
14  6  5
6  18  8
6  19  8
7  19  8
7  20  8
9  18  8
9  22  8

$$$$
