20968971
  -OEChem-06121221082D

 48 50  0     1  0  0  0  0  0999 V2000
    7.9244   -0.1830    0.0000 O   0  0  0  0  0  0  0  0  0  0  0  0
    7.5673    1.5118    0.0000 N   0  0  0  0  0  0  0  0  0  0  0  0
    4.6783   -3.3616    0.0000 N   0  0  0  0  0  0  0  0  0  0  0  0
    8.8564    2.6686    0.0000 C   0  0  3  0  0  0  0  0  0  0  0  0
    7.2101    3.2066    0.0000 C   0  0  3  0  0  0  0  0  0  0  0  0
    8.1886    3.4129    0.0000 C   0  0  0  0  0  0  0  0  0  0  0  0
    6.8994    2.2561    0.0000 C   0  0  0  0  0  0  0  0  0  0  0  0
    8.5458    1.7180    0.0000 C   0  0  0  0  0  0  0  0  0  0  0  0
    6.5422    3.9510    0.0000 C   0  0  0  0  0  0  0  0  0  0  0  0
    9.8349    2.8748    0.0000 C   0  0  0  0  0  0  0  0  0  0  0  0
    7.2566    0.5613    0.0000 C   0  0  0  0  0  0  0  0  0  0  0  0
    6.2781    0.3551    0.0000 C   0  0  0  0  0  0  0  0  0  0  0  0
    5.9674   -0.5954    0.0000 C   0  0  0  0  0  0  0  0  0  0  0  0
    4.9889   -0.8016    0.0000 C   0  0  0  0  0  0  0  0  0  0  0  0
    4.6783   -1.7522    0.0000 C   0  0  0  0  0  0  0  0  0  0  0  0
    3.7320   -2.0569    0.0000 C   0  0  0  0  0  0  0  0  0  0  0  0
    5.2619   -2.5569    0.0000 C   0  0  0  0  0  0  0  0  0  0  0  0
    3.7320   -3.0569    0.0000 C   0  0  0  0  0  0  0  0  0  0  0  0
    2.8660   -1.5569    0.0000 C   0  0  0  0  0  0  0  0  0  0  0  0
    2.8660   -3.5569    0.0000 C   0  0  0  0  0  0  0  0  0  0  0  0
    2.0000   -2.0569    0.0000 C   0  0  0  0  0  0  0  0  0  0  0  0
    2.0000   -3.0569    0.0000 C   0  0  0  0  0  0  0  0  0  0  0  0
    9.0490    3.2579    0.0000 H   0  0  0  0  0  0  0  0  0  0  0  0
    7.4027    3.7960    0.0000 H   0  0  0  0  0  0  0  0  0  0  0  0
    8.7150    3.7405    0.0000 H   0  0  0  0  0  0  0  0  0  0  0  0
    7.9573    3.9881    0.0000 H   0  0  0  0  0  0  0  0  0  0  0  0
    6.3525    2.5482    0.0000 H   0  0  0  0  0  0  0  0  0  0  0  0
    6.5169    1.7682    0.0000 H   0  0  0  0  0  0  0  0  0  0  0  0
    8.5663    1.0984    0.0000 H   0  0  0  0  0  0  0  0  0  0  0  0
    9.1596    1.6307    0.0000 H   0  0  0  0  0  0  0  0  0  0  0  0
    7.0037    4.3650    0.0000 H   0  0  0  0  0  0  0  0  0  0  0  0
    6.1282    4.4124    0.0000 H   0  0  0  0  0  0  0  0  0  0  0  0
    9.9628    2.2681    0.0000 H   0  0  0  0  0  0  0  0  0  0  0  0
   10.4416    3.0026    0.0000 H   0  0  0  0  0  0  0  0  0  0  0  0
    9.7071    3.4815    0.0000 H   0  0  0  0  0  0  0  0  0  0  0  0
    6.0808    3.5369    0.0000 H   0  0  0  0  0  0  0  0  0  0  0  0
    6.2575    0.9748    0.0000 H   0  0  0  0  0  0  0  0  0  0  0  0
    5.6643    0.4424    0.0000 H   0  0  0  0  0  0  0  0  0  0  0  0
    5.9880   -1.2151    0.0000 H   0  0  0  0  0  0  0  0  0  0  0  0
    6.5812   -0.6828    0.0000 H   0  0  0  0  0  0  0  0  0  0  0  0
    4.9684   -0.1820    0.0000 H   0  0  0  0  0  0  0  0  0  0  0  0
    4.3751   -0.7143    0.0000 H   0  0  0  0  0  0  0  0  0  0  0  0
    5.8819   -2.5569    0.0000 H   0  0  0  0  0  0  0  0  0  0  0  0
    4.8709   -3.9510    0.0000 H   0  0  0  0  0  0  0  0  0  0  0  0
    2.8660   -0.9369    0.0000 H   0  0  0  0  0  0  0  0  0  0  0  0
    2.8660   -4.1769    0.0000 H   0  0  0  0  0  0  0  0  0  0  0  0
    1.4631   -1.7469    0.0000 H   0  0  0  0  0  0  0  0  0  0  0  0
    1.4631   -3.3669    0.0000 H   0  0  0  0  0  0  0  0  0  0  0  0
  1 11  2  0  0  0  0
  2  7  1  0  0  0  0
  2  8  1  0  0  0  0
  2 11  1  0  0  0  0
  3 17  1  0  0  0  0
  3 18  1  0  0  0  0
  3 44  1  0  0  0  0
  4  6  1  0  0  0  0
  4  8  1  0  0  0  0
  4 10  1  0  0  0  0
  4 23  1  0  0  0  0
  5  6  1  0  0  0  0
  5  7  1  0  0  0  0
  5  9  1  0  0  0  0
  5 24  1  0  0  0  0
  6 25  1  0  0  0  0
  6 26  1  0  0  0  0
  7 27  1  0  0  0  0
  7 28  1  0  0  0  0
  8 29  1  0  0  0  0
  8 30  1  0  0  0  0
  9 31  1  0  0  0  0
  9 32  1  0  0  0  0
  9 36  1  0  0  0  0
 10 33  1  0  0  0  0
 10 34  1  0  0  0  0
 10 35  1  0  0  0  0
 11 12  1  0  0  0  0
 12 13  1  0  0  0  0
 12 37  1  0  0  0  0
 12 38  1  0  0  0  0
 13 14  1  0  0  0  0
 13 39  1  0  0  0  0
 13 40  1  0  0  0  0
 14 15  1  0  0  0  0
 14 41  1  0  0  0  0
 14 42  1  0  0  0  0
 15 16  1  0  0  0  0
 15 17  2  0  0  0  0
 16 18  1  0  0  0  0
 16 19  2  0  0  0  0
 17 43  1  0  0  0  0
 18 20  2  0  0  0  0
 19 21  1  0  0  0  0
 19 45  1  0  0  0  0
 20 22  1  0  0  0  0
 20 46  1  0  0  0  0
 21 22  2  0  0  0  0
 21 47  1  0  0  0  0
 22 48  1  0  0  0  0
M  END
> <PUBCHEM_COMPOUND_CID>
20968971

> <PUBCHEM_COMPOUND_CANONICALIZED>
1

> <PUBCHEM_CACTVS_COMPLEXITY>
374

> <PUBCHEM_CACTVS_HBOND_ACCEPTOR>
1

> <PUBCHEM_CACTVS_HBOND_DONOR>
1

> <PUBCHEM_CACTVS_ROTATABLE_BOND>
4

> <PUBCHEM_CACTVS_SUBSKEYS>
AAADceB7IAAAAAAAAAAAAAAAAAAAAWAAAAA8QAAAAAAAAFgB8AAAHgAQAAAADQjBngQ+wPPJkACoAzV3VACCgCAxAiAI2aE4ZJgIIPLAkZGEIAhglgDIyAcYiMCOgAAAAAACAAAAAAAAAAQAAAAAAAAAAA==

> <PUBCHEM_IUPAC_OPENEYE_NAME>
1-(3,5-dimethyl-1-piperidyl)-4-(1H-indol-3-yl)butan-1-one

> <PUBCHEM_IUPAC_CAS_NAME>
1-(3,5-dimethyl-1-piperidinyl)-4-(1H-indol-3-yl)-1-butanone

> <PUBCHEM_IUPAC_NAME>
1-(3,5-dimethylpiperidin-1-yl)-4-(1H-indol-3-yl)butan-1-one

> <PUBCHEM_IUPAC_SYSTEMATIC_NAME>
1-(3,5-dimethylpiperidin-1-yl)-4-(1H-indol-3-yl)butan-1-one

> <PUBCHEM_IUPAC_TRADITIONAL_NAME>
1-(3,5-dimethylpiperidino)-4-(1H-indol-3-yl)butan-1-one

> <PUBCHEM_IUPAC_INCHI>
InChI=1S/C19H26N2O/c1-14-10-15(2)13-21(12-14)19(22)9-5-6-16-11-20-18-8-4-3-7-17(16)18/h3-4,7-8,11,14-15,20H,5-6,9-10,12-13H2,1-2H3

> <PUBCHEM_IUPAC_INCHIKEY>
HYVOLOYCDLSLJR-UHFFFAOYSA-N

> <PUBCHEM_XLOGP3>
4

> <PUBCHEM_EXACT_MASS>
298.204513

> <PUBCHEM_MOLECULAR_FORMULA>
C19H26N2O

> <PUBCHEM_MOLECULAR_WEIGHT>
298.42254

> <PUBCHEM_OPENEYE_CAN_SMILES>
CC1CC(CN(C1)C(=O)CCCC2=CNC3=CC=CC=C32)C

> <PUBCHEM_OPENEYE_ISO_SMILES>
CC1CC(CN(C1)C(=O)CCCC2=CNC3=CC=CC=C32)C

> <PUBCHEM_CACTVS_TPSA>
36.1

> <PUBCHEM_MONOISOTOPIC_WEIGHT>
298.204513

> <PUBCHEM_TOTAL_CHARGE>
0

> <PUBCHEM_HEAVY_ATOM_COUNT>
22

> <PUBCHEM_ATOM_DEF_STEREO_COUNT>
0

> <PUBCHEM_ATOM_UDEF_STEREO_COUNT>
2

> <PUBCHEM_BOND_DEF_STEREO_COUNT>
0

> <PUBCHEM_BOND_UDEF_STEREO_COUNT>
0

> <PUBCHEM_ISOTOPIC_ATOM_COUNT>
0

> <PUBCHEM_COMPONENT_COUNT>
1

> <PUBCHEM_CACTVS_TAUTO_COUNT>
1

> <PUBCHEM_COORDINATE_TYPE>
1
5
255

> <PUBCHEM_BONDANNOTATIONS>
15  16  8
15  17  8
16  18  8
16  19  8
18  20  8
19  21  8
20  22  8
21  22  8
3  17  8
3  18  8
4  10  3
5  9  3

$$$$
20968976
  -OEChem-06121221082D

 45 47  0     0  0  0  0  0  0999 V2000
    7.9244   -0.1202    0.0000 O   0  0  0  0  0  0  0  0  0  0  0  0
    4.6783   -3.2988    0.0000 N   0  0  0  0  0  0  0  0  0  0  0  0
    7.5673    1.5747    0.0000 N   0  0  0  0  0  0  0  0  0  0  0  0
    4.9889   -0.7388    0.0000 C   0  0  0  0  0  0  0  0  0  0  0  0
    4.6783   -1.6893    0.0000 C   0  0  0  0  0  0  0  0  0  0  0  0
    5.9674   -0.5326    0.0000 C   0  0  0  0  0  0  0  0  0  0  0  0
    3.7320   -1.9941    0.0000 C   0  0  0  0  0  0  0  0  0  0  0  0
    6.2781    0.4179    0.0000 C   0  0  0  0  0  0  0  0  0  0  0  0
    3.7320   -2.9941    0.0000 C   0  0  0  0  0  0  0  0  0  0  0  0
    5.2619   -2.4941    0.0000 C   0  0  0  0  0  0  0  0  0  0  0  0
    2.8660   -1.4941    0.0000 C   0  0  0  0  0  0  0  0  0  0  0  0
    7.2566    0.6241    0.0000 C   0  0  0  0  0  0  0  0  0  0  0  0
    2.8660   -3.4941    0.0000 C   0  0  0  0  0  0  0  0  0  0  0  0
    8.5458    1.7809    0.0000 C   0  0  0  0  0  0  0  0  0  0  0  0
    2.0000   -1.9941    0.0000 C   0  0  0  0  0  0  0  0  0  0  0  0
    2.0000   -2.9941    0.0000 C   0  0  0  0  0  0  0  0  0  0  0  0
    9.2136    1.0366    0.0000 C   0  0  0  0  0  0  0  0  0  0  0  0
    8.8564    2.7314    0.0000 C   0  0  0  0  0  0  0  0  0  0  0  0
    9.8349    2.9376    0.0000 C   0  0  0  0  0  0  0  0  0  0  0  0
   10.1921    1.2428    0.0000 C   0  0  0  0  0  0  0  0  0  0  0  0
   10.5028    2.1933    0.0000 C   0  0  0  0  0  0  0  0  0  0  0  0
    8.9030    0.0861    0.0000 C   0  0  0  0  0  0  0  0  0  0  0  0
   10.1456    3.8881    0.0000 C   0  0  0  0  0  0  0  0  0  0  0  0
    4.9684   -0.1192    0.0000 H   0  0  0  0  0  0  0  0  0  0  0  0
    4.3751   -0.6515    0.0000 H   0  0  0  0  0  0  0  0  0  0  0  0
    5.9880   -1.1523    0.0000 H   0  0  0  0  0  0  0  0  0  0  0  0
    6.5812   -0.6200    0.0000 H   0  0  0  0  0  0  0  0  0  0  0  0
    6.2575    1.0376    0.0000 H   0  0  0  0  0  0  0  0  0  0  0  0
    5.6643    0.5053    0.0000 H   0  0  0  0  0  0  0  0  0  0  0  0
    5.8819   -2.4941    0.0000 H   0  0  0  0  0  0  0  0  0  0  0  0
    4.8709   -3.8881    0.0000 H   0  0  0  0  0  0  0  0  0  0  0  0
    2.8660   -0.8741    0.0000 H   0  0  0  0  0  0  0  0  0  0  0  0
    2.8660   -4.1141    0.0000 H   0  0  0  0  0  0  0  0  0  0  0  0
    7.1532    2.0361    0.0000 H   0  0  0  0  0  0  0  0  0  0  0  0
    1.4631   -1.6841    0.0000 H   0  0  0  0  0  0  0  0  0  0  0  0
    1.4631   -3.3041    0.0000 H   0  0  0  0  0  0  0  0  0  0  0  0
    8.4424    3.1929    0.0000 H   0  0  0  0  0  0  0  0  0  0  0  0
   10.6062    0.7813    0.0000 H   0  0  0  0  0  0  0  0  0  0  0  0
   11.1095    2.3212    0.0000 H   0  0  0  0  0  0  0  0  0  0  0  0
    8.3136    0.2787    0.0000 H   0  0  0  0  0  0  0  0  0  0  0  0
    8.7104   -0.5033    0.0000 H   0  0  0  0  0  0  0  0  0  0  0  0
    9.4923   -0.1066    0.0000 H   0  0  0  0  0  0  0  0  0  0  0  0
   10.7349    3.6955    0.0000 H   0  0  0  0  0  0  0  0  0  0  0  0
   10.3382    4.4774    0.0000 H   0  0  0  0  0  0  0  0  0  0  0  0
    9.5563    4.0807    0.0000 H   0  0  0  0  0  0  0  0  0  0  0  0
  1 12  2  0  0  0  0
  2  9  1  0  0  0  0
  2 10  1  0  0  0  0
  2 31  1  0  0  0  0
  3 12  1  0  0  0  0
  3 14  1  0  0  0  0
  3 34  1  0  0  0  0
  4  5  1  0  0  0  0
  4  6  1  0  0  0  0
  4 24  1  0  0  0  0
  4 25  1  0  0  0  0
  5  7  1  0  0  0  0
  5 10  2  0  0  0  0
  6  8  1  0  0  0  0
  6 26  1  0  0  0  0
  6 27  1  0  0  0  0
  7  9  1  0  0  0  0
  7 11  2  0  0  0  0
  8 12  1  0  0  0  0
  8 28  1  0  0  0  0
  8 29  1  0  0  0  0
  9 13  2  0  0  0  0
 10 30  1  0  0  0  0
 11 15  1  0  0  0  0
 11 32  1  0  0  0  0
 13 16  1  0  0  0  0
 13 33  1  0  0  0  0
 14 17  2  0  0  0  0
 14 18  1  0  0  0  0
 15 16  2  0  0  0  0
 15 35  1  0  0  0  0
 16 36  1  0  0  0  0
 17 20  1  0  0  0  0
 17 22  1  0  0  0  0
 18 19  2  0  0  0  0
 18 37  1  0  0  0  0
 19 21  1  0  0  0  0
 19 23  1  0  0  0  0
 20 21  2  0  0  0  0
 20 38  1  0  0  0  0
 21 39  1  0  0  0  0
 22 40  1  0  0  0  0
 22 41  1  0  0  0  0
 22 42  1  0  0  0  0
 23 43  1  0  0  0  0
 23 44  1  0  0  0  0
 23 45  1  0  0  0  0
M  END
> <PUBCHEM_COMPOUND_CID>
20968976

> <PUBCHEM_COMPOUND_CANONICALIZED>
1

> <PUBCHEM_CACTVS_COMPLEXITY>
397

> <PUBCHEM_CACTVS_HBOND_ACCEPTOR>
1

> <PUBCHEM_CACTVS_HBOND_DONOR>
2

> <PUBCHEM_CACTVS_ROTATABLE_BOND>
5

> <PUBCHEM_CACTVS_SUBSKEYS>
AAADceB7IAAAAAAAAAAAAAAAAAAAAWAAAAAwYAAAAAAAAFgB9AAAHgAQAAAADAjBngQ+wPLJkACoAzV3VACCgCAxAiAI2aE4ZJgIIPLAkZGEIAhglADIyAcYiMCOwAAAQAACAACAAACAAAQAAAAAAAAAAA==

> <PUBCHEM_IUPAC_OPENEYE_NAME>
N-(2,5-dimethylphenyl)-4-(1H-indol-3-yl)butanamide

> <PUBCHEM_IUPAC_CAS_NAME>
N-(2,5-dimethylphenyl)-4-(1H-indol-3-yl)butanamide

> <PUBCHEM_IUPAC_NAME>
N-(2,5-dimethylphenyl)-4-(1H-indol-3-yl)butanamide

> <PUBCHEM_IUPAC_SYSTEMATIC_NAME>
N-(2,5-dimethylphenyl)-4-(1H-indol-3-yl)butanamide

> <PUBCHEM_IUPAC_TRADITIONAL_NAME>
N-(2,5-dimethylphenyl)-4-(1H-indol-3-yl)butyramide

> <PUBCHEM_IUPAC_INCHI>
InChI=1S/C20H22N2O/c1-14-10-11-15(2)19(12-14)22-20(23)9-5-6-16-13-21-18-8-4-3-7-17(16)18/h3-4,7-8,10-13,21H,5-6,9H2,1-2H3,(H,22,23)

> <PUBCHEM_IUPAC_INCHIKEY>
PKHMXCRRZSKSHK-UHFFFAOYSA-N

> <PUBCHEM_XLOGP3>
4.3

> <PUBCHEM_EXACT_MASS>
306.173213

> <PUBCHEM_MOLECULAR_FORMULA>
C20H22N2O

> <PUBCHEM_MOLECULAR_WEIGHT>
306.40148

> <PUBCHEM_OPENEYE_CAN_SMILES>
CC1=CC(=C(C=C1)C)NC(=O)CCCC2=CNC3=CC=CC=C32

> <PUBCHEM_OPENEYE_ISO_SMILES>
CC1=CC(=C(C=C1)C)NC(=O)CCCC2=CNC3=CC=CC=C32

> <PUBCHEM_CACTVS_TPSA>
44.9

> <PUBCHEM_MONOISOTOPIC_WEIGHT>
306.173213

> <PUBCHEM_TOTAL_CHARGE>
0

> <PUBCHEM_HEAVY_ATOM_COUNT>
23

> <PUBCHEM_ATOM_DEF_STEREO_COUNT>
0

> <PUBCHEM_ATOM_UDEF_STEREO_COUNT>
0

> <PUBCHEM_BOND_DEF_STEREO_COUNT>
0

> <PUBCHEM_BOND_UDEF_STEREO_COUNT>
0

> <PUBCHEM_ISOTOPIC_ATOM_COUNT>
0

> <PUBCHEM_COMPONENT_COUNT>
1

> <PUBCHEM_CACTVS_TAUTO_COUNT>
3

> <PUBCHEM_COORDINATE_TYPE>
1
5
255

> <PUBCHEM_BONDANNOTATIONS>
11  15  8
13  16  8
14  17  8
14  18  8
15  16  8
17  20  8
18  19  8
19  21  8
2  10  8
2  9  8
20  21  8
5  10  8
5  7  8
7  11  8
7  9  8
9  13  8

$$$$
20969016
  -OEChem-06121221082D

 34 35  0     0  0  0  0  0  0999 V2000
    2.8660    0.2327    0.0000 O   0  0  0  0  0  0  0  0  0  0  0  0
    3.7320   -1.2673    0.0000 N   0  0  0  0  0  0  0  0  0  0  0  0
    4.5981    1.2327    0.0000 C   0  0  0  0  0  0  0  0  0  0  0  0
    5.4641    1.7327    0.0000 C   0  0  0  0  0  0  0  0  0  0  0  0
    4.5981    0.2327    0.0000 C   0  0  0  0  0  0  0  0  0  0  0  0
    5.4641    2.7327    0.0000 C   0  0  0  0  0  0  0  0  0  0  0  0
    2.8660   -1.7673    0.0000 C   0  0  0  0  0  0  0  0  0  0  0  0
    3.7320    1.7327    0.0000 C   0  0  0  0  0  0  0  0  0  0  0  0
    3.7320   -0.2673    0.0000 C   0  0  0  0  0  0  0  0  0  0  0  0
    6.3580    1.1980    0.0000 C   0  0  0  0  0  0  0  0  0  0  0  0
    2.8660   -2.7673    0.0000 C   0  0  0  0  0  0  0  0  0  0  0  0
    4.5981    3.2327    0.0000 C   0  0  0  0  0  0  0  0  0  0  0  0
    3.7320    2.7327    0.0000 C   0  0  0  0  0  0  0  0  0  0  0  0
    6.3580    3.2673    0.0000 C   0  0  0  0  0  0  0  0  0  0  0  0
    7.2641    1.7118    0.0000 C   0  0  0  0  0  0  0  0  0  0  0  0
    7.2641    2.7535    0.0000 C   0  0  0  0  0  0  0  0  0  0  0  0
    2.0000   -3.2673    0.0000 C   0  0  0  0  0  0  0  0  0  0  0  0
    4.8101   -0.3499    0.0000 H   0  0  0  0  0  0  0  0  0  0  0  0
    5.2087    0.3403    0.0000 H   0  0  0  0  0  0  0  0  0  0  0  0
    2.6540   -1.1847    0.0000 H   0  0  0  0  0  0  0  0  0  0  0  0
    2.2554   -1.8750    0.0000 H   0  0  0  0  0  0  0  0  0  0  0  0
    3.1951    1.4227    0.0000 H   0  0  0  0  0  0  0  0  0  0  0  0
    3.0781   -3.3499    0.0000 H   0  0  0  0  0  0  0  0  0  0  0  0
    3.4766   -2.6597    0.0000 H   0  0  0  0  0  0  0  0  0  0  0  0
    6.3509    0.5780    0.0000 H   0  0  0  0  0  0  0  0  0  0  0  0
    4.2690   -1.5773    0.0000 H   0  0  0  0  0  0  0  0  0  0  0  0
    4.5981    3.8527    0.0000 H   0  0  0  0  0  0  0  0  0  0  0  0
    3.1951    3.0427    0.0000 H   0  0  0  0  0  0  0  0  0  0  0  0
    6.3509    3.8873    0.0000 H   0  0  0  0  0  0  0  0  0  0  0  0
    7.7998    1.3998    0.0000 H   0  0  0  0  0  0  0  0  0  0  0  0
    7.7998    3.0656    0.0000 H   0  0  0  0  0  0  0  0  0  0  0  0
    1.6900   -2.7304    0.0000 H   0  0  0  0  0  0  0  0  0  0  0  0
    1.4631   -3.5773    0.0000 H   0  0  0  0  0  0  0  0  0  0  0  0
    2.3100   -3.8043    0.0000 H   0  0  0  0  0  0  0  0  0  0  0  0
  1  9  2  0  0  0  0
  2  7  1  0  0  0  0
  2  9  1  0  0  0  0
  2 26  1  0  0  0  0
  3  4  1  0  0  0  0
  3  5  1  0  0  0  0
  3  8  2  0  0  0  0
  4  6  1  0  0  0  0
  4 10  2  0  0  0  0
  5  9  1  0  0  0  0
  5 18  1  0  0  0  0
  5 19  1  0  0  0  0
  6 12  1  0  0  0  0
  6 14  2  0  0  0  0
  7 11  1  0  0  0  0
  7 20  1  0  0  0  0
  7 21  1  0  0  0  0
  8 13  1  0  0  0  0
  8 22  1  0  0  0  0
 10 15  1  0  0  0  0
 10 25  1  0  0  0  0
 11 17  1  0  0  0  0
 11 23  1  0  0  0  0
 11 24  1  0  0  0  0
 12 13  2  0  0  0  0
 12 27  1  0  0  0  0
 13 28  1  0  0  0  0
 14 16  1  0  0  0  0
 14 29  1  0  0  0  0
 15 16  2  0  0  0  0
 15 30  1  0  0  0  0
 16 31  1  0  0  0  0
 17 32  1  0  0  0  0
 17 33  1  0  0  0  0
 17 34  1  0  0  0  0
M  END
> <PUBCHEM_COMPOUND_CID>
20969016

> <PUBCHEM_COMPOUND_CANONICALIZED>
1

> <PUBCHEM_CACTVS_COMPLEXITY>
251

> <PUBCHEM_CACTVS_HBOND_ACCEPTOR>
1

> <PUBCHEM_CACTVS_HBOND_DONOR>
1

> <PUBCHEM_CACTVS_ROTATABLE_BOND>
4

> <PUBCHEM_CACTVS_SUBSKEYS>
AAADceByIAAAAAAAAAAAAAAAAAAAAAAAAAAwYAAAAAAAAADBUAAAHgAQAAAADADBmAQyAMLAAACIAiFSEAACAAAgAAAIiIEIAIgIIDKAlRGEIAAglgCIiAcYiMCOgAACAAAQAAAAAAQAACAAAAAAAAAAAA==

> <PUBCHEM_IUPAC_OPENEYE_NAME>
2-(1-naphthyl)-N-propyl-acetamide

> <PUBCHEM_IUPAC_CAS_NAME>
2-(1-naphthalenyl)-N-propylacetamide

> <PUBCHEM_IUPAC_NAME>
2-naphthalen-1-yl-N-propylacetamide

> <PUBCHEM_IUPAC_SYSTEMATIC_NAME>
2-naphthalen-1-yl-N-propyl-ethanamide

> <PUBCHEM_IUPAC_TRADITIONAL_NAME>
2-(1-naphthyl)-N-propyl-acetamide

> <PUBCHEM_IUPAC_INCHI>
InChI=1S/C15H17NO/c1-2-10-16-15(17)11-13-8-5-7-12-6-3-4-9-14(12)13/h3-9H,2,10-11H2,1H3,(H,16,17)

> <PUBCHEM_IUPAC_INCHIKEY>
LHOBWTZHVVMJDN-UHFFFAOYSA-N

> <PUBCHEM_XLOGP3>
3.4

> <PUBCHEM_EXACT_MASS>
227.131014

> <PUBCHEM_MOLECULAR_FORMULA>
C15H17NO

> <PUBCHEM_MOLECULAR_WEIGHT>
227.30158

> <PUBCHEM_OPENEYE_CAN_SMILES>
CCCNC(=O)CC1=CC=CC2=CC=CC=C21

> <PUBCHEM_OPENEYE_ISO_SMILES>
CCCNC(=O)CC1=CC=CC2=CC=CC=C21

> <PUBCHEM_CACTVS_TPSA>
29.1

> <PUBCHEM_MONOISOTOPIC_WEIGHT>
227.131014

> <PUBCHEM_TOTAL_CHARGE>
0

> <PUBCHEM_HEAVY_ATOM_COUNT>
17

> <PUBCHEM_ATOM_DEF_STEREO_COUNT>
0

> <PUBCHEM_ATOM_UDEF_STEREO_COUNT>
0

> <PUBCHEM_BOND_DEF_STEREO_COUNT>
0

> <PUBCHEM_BOND_UDEF_STEREO_COUNT>
0

> <PUBCHEM_ISOTOPIC_ATOM_COUNT>
0

> <PUBCHEM_COMPONENT_COUNT>
1

> <PUBCHEM_CACTVS_TAUTO_COUNT>
2

> <PUBCHEM_COORDINATE_TYPE>
1
5
255

> <PUBCHEM_BONDANNOTATIONS>
10  15  8
12  13  8
14  16  8
15  16  8
3  4  8
3  8  8
4  10  8
4  6  8
6  12  8
6  14  8
8  13  8

$$$$
20969401
  -OEChem-06121221082D

 40 42  0     0  0  0  0  0  0999 V2000
    5.4641   -3.8512    0.0000 Cl  0  0  0  0  0  0  0  0  0  0  0  0
    5.4641   -0.8512    0.0000 O   0  0  0  0  0  0  0  0  0  0  0  0
    8.0622    2.6488    0.0000 N   0  0  0  0  0  0  0  0  0  0  0  0
    3.7320   -0.8512    0.0000 N   0  0  0  0  0  0  0  0  0  0  0  0
    5.4641    1.1488    0.0000 C   0  0  0  0  0  0  0  0  0  0  0  0
    4.5981    0.6488    0.0000 C   0  0  0  0  0  0  0  0  0  0  0  0
    7.1962    2.1488    0.0000 C   0  0  0  0  0  0  0  0  0  0  0  0
    6.3301    0.6488    0.0000 C   0  0  0  0  0  0  0  0  0  0  0  0
    5.4641    2.1488    0.0000 C   0  0  0  0  0  0  0  0  0  0  0  0
    7.1962    1.1488    0.0000 C   0  0  0  0  0  0  0  0  0  0  0  0
    6.3301    2.6488    0.0000 C   0  0  0  0  0  0  0  0  0  0  0  0
    3.7320   -1.8512    0.0000 C   0  0  0  0  0  0  0  0  0  0  0  0
    4.5981   -0.3512    0.0000 C   0  0  0  0  0  0  0  0  0  0  0  0
    2.8660   -2.3512    0.0000 C   0  0  0  0  0  0  0  0  0  0  0  0
    8.9757    2.2420    0.0000 C   0  0  0  0  0  0  0  0  0  0  0  0
    8.1667    3.6433    0.0000 C   0  0  0  0  0  0  0  0  0  0  0  0
    4.5981   -2.3512    0.0000 C   0  0  0  0  0  0  0  0  0  0  0  0
    2.8660   -3.3512    0.0000 C   0  0  0  0  0  0  0  0  0  0  0  0
    2.0000   -1.8512    0.0000 C   0  0  0  0  0  0  0  0  0  0  0  0
    9.1448    3.8512    0.0000 C   0  0  0  0  0  0  0  0  0  0  0  0
    9.6448    2.9852    0.0000 C   0  0  0  0  0  0  0  0  0  0  0  0
    4.5981   -3.3512    0.0000 C   0  0  0  0  0  0  0  0  0  0  0  0
    3.7320   -3.8512    0.0000 C   0  0  0  0  0  0  0  0  0  0  0  0
    4.3860    1.2314    0.0000 H   0  0  0  0  0  0  0  0  0  0  0  0
    3.9875    0.5411    0.0000 H   0  0  0  0  0  0  0  0  0  0  0  0
    6.3301    0.0288    0.0000 H   0  0  0  0  0  0  0  0  0  0  0  0
    4.9272    2.4588    0.0000 H   0  0  0  0  0  0  0  0  0  0  0  0
    7.7331    0.8388    0.0000 H   0  0  0  0  0  0  0  0  0  0  0  0
    6.3301    3.2688    0.0000 H   0  0  0  0  0  0  0  0  0  0  0  0
    3.1951   -0.5412    0.0000 H   0  0  0  0  0  0  0  0  0  0  0  0
    9.1046    1.6356    0.0000 H   0  0  0  0  0  0  0  0  0  0  0  0
    7.7060    4.0582    0.0000 H   0  0  0  0  0  0  0  0  0  0  0  0
    5.1350   -2.0412    0.0000 H   0  0  0  0  0  0  0  0  0  0  0  0
    2.3291   -3.6612    0.0000 H   0  0  0  0  0  0  0  0  0  0  0  0
    2.3100   -1.3143    0.0000 H   0  0  0  0  0  0  0  0  0  0  0  0
    1.4631   -1.5412    0.0000 H   0  0  0  0  0  0  0  0  0  0  0  0
    1.6900   -2.3882    0.0000 H   0  0  0  0  0  0  0  0  0  0  0  0
   10.2615    2.9204    0.0000 H   0  0  0  0  0  0  0  0  0  0  0  0
    9.3970    4.4176    0.0000 H   0  0  0  0  0  0  0  0  0  0  0  0
    3.7320   -4.4712    0.0000 H   0  0  0  0  0  0  0  0  0  0  0  0
  1 22  1  0  0  0  0
  2 13  2  0  0  0  0
  3  7  1  0  0  0  0
  3 15  1  0  0  0  0
  3 16  1  0  0  0  0
  4 12  1  0  0  0  0
  4 13  1  0  0  0  0
  4 30  1  0  0  0  0
  5  6  1  0  0  0  0
  5  8  2  0  0  0  0
  5  9  1  0  0  0  0
  6 13  1  0  0  0  0
  6 24  1  0  0  0  0
  6 25  1  0  0  0  0
  7 10  2  0  0  0  0
  7 11  1  0  0  0  0
  8 10  1  0  0  0  0
  8 26  1  0  0  0  0
  9 11  2  0  0  0  0
  9 27  1  0  0  0  0
 10 28  1  0  0  0  0
 11 29  1  0  0  0  0
 12 14  2  0  0  0  0
 12 17  1  0  0  0  0
 14 18  1  0  0  0  0
 14 19  1  0  0  0  0
 15 21  2  0  0  0  0
 15 31  1  0  0  0  0
 16 20  2  0  0  0  0
 16 32  1  0  0  0  0
 17 22  2  0  0  0  0
 17 33  1  0  0  0  0
 18 23  2  0  0  0  0
 18 34  1  0  0  0  0
 19 35  1  0  0  0  0
 19 36  1  0  0  0  0
 19 37  1  0  0  0  0
 20 21  1  0  0  0  0
 20 39  1  0  0  0  0
 21 38  1  0  0  0  0
 22 23  1  0  0  0  0
 23 40  1  0  0  0  0
M  END
> <PUBCHEM_COMPOUND_CID>
20969401

> <PUBCHEM_COMPOUND_CANONICALIZED>
1

> <PUBCHEM_CACTVS_COMPLEXITY>
389

> <PUBCHEM_CACTVS_HBOND_ACCEPTOR>
1

> <PUBCHEM_CACTVS_HBOND_DONOR>
1

> <PUBCHEM_CACTVS_ROTATABLE_BOND>
4

> <PUBCHEM_CACTVS_SUBSKEYS>
AAADceB7IAAEAAAAAAAAAAAAAAAAAWAAAAAwYAAAAAAAAAAB0AAAHgIQAAAADArBmiQ+wJPMEACoAjV3VACCgCAxByAI2CE4ZpgIIPLBl5GEIAhglADIyAcYiICODAAAAAICAAAYAAAABAQAAAAAAAAAAA==

> <PUBCHEM_IUPAC_OPENEYE_NAME>
N-(5-chloro-2-methyl-phenyl)-2-(4-pyrrol-1-ylphenyl)acetamide

> <PUBCHEM_IUPAC_CAS_NAME>
N-(5-chloro-2-methylphenyl)-2-[4-(1-pyrrolyl)phenyl]acetamide

> <PUBCHEM_IUPAC_NAME>
N-(5-chloro-2-methylphenyl)-2-(4-pyrrol-1-ylphenyl)acetamide

> <PUBCHEM_IUPAC_SYSTEMATIC_NAME>
N-(5-chloranyl-2-methyl-phenyl)-2-(4-pyrrol-1-ylphenyl)ethanamide

> <PUBCHEM_IUPAC_TRADITIONAL_NAME>
N-(5-chloro-2-methyl-phenyl)-2-(4-pyrrol-1-ylphenyl)acetamide

> <PUBCHEM_IUPAC_INCHI>
InChI=1S/C19H17ClN2O/c1-14-4-7-16(20)13-18(14)21-19(23)12-15-5-8-17(9-6-15)22-10-2-3-11-22/h2-11,13H,12H2,1H3,(H,21,23)

> <PUBCHEM_IUPAC_INCHIKEY>
QATONJDSHOVDTL-UHFFFAOYSA-N

> <PUBCHEM_XLOGP3>
3.8

> <PUBCHEM_EXACT_MASS>
324.102941

> <PUBCHEM_MOLECULAR_FORMULA>
C19H17ClN2O

> <PUBCHEM_MOLECULAR_WEIGHT>
324.80408

> <PUBCHEM_OPENEYE_CAN_SMILES>
CC1=C(C=C(C=C1)Cl)NC(=O)CC2=CC=C(C=C2)N3C=CC=C3

> <PUBCHEM_OPENEYE_ISO_SMILES>
CC1=C(C=C(C=C1)Cl)NC(=O)CC2=CC=C(C=C2)N3C=CC=C3

> <PUBCHEM_CACTVS_TPSA>
34

> <PUBCHEM_MONOISOTOPIC_WEIGHT>
324.102941

> <PUBCHEM_TOTAL_CHARGE>
0

> <PUBCHEM_HEAVY_ATOM_COUNT>
23

> <PUBCHEM_ATOM_DEF_STEREO_COUNT>
0

> <PUBCHEM_ATOM_UDEF_STEREO_COUNT>
0

> <PUBCHEM_BOND_DEF_STEREO_COUNT>
0

> <PUBCHEM_BOND_UDEF_STEREO_COUNT>
0

> <PUBCHEM_ISOTOPIC_ATOM_COUNT>
0

> <PUBCHEM_COMPONENT_COUNT>
1

> <PUBCHEM_CACTVS_TAUTO_COUNT>
3

> <PUBCHEM_COORDINATE_TYPE>
1
5
255

> <PUBCHEM_BONDANNOTATIONS>
12  14  8
12  17  8
14  18  8
15  21  8
16  20  8
17  22  8
18  23  8
20  21  8
22  23  8
3  15  8
3  16  8
5  8  8
5  9  8
7  10  8
7  11  8
8  10  8
9  11  8

$$$$
