55576713
  -OEChem-11301218082D

 29 30  0     0  0  0  0  0  0999 V2000
    2.0000   -1.7500    0.0000 I   0  0  0  0  0  0  0  0  0  0  0  0
    6.3301    3.7500    0.0000 Br  0  0  0  0  0  0  0  0  0  0  0  0
    2.8660   -0.2500    0.0000 O   0  0  0  0  0  0  0  0  0  0  0  0
    4.5981   -0.2500    0.0000 N   0  0  0  0  0  0  0  0  0  0  0  0
    4.5981    0.7500    0.0000 C   0  0  0  0  0  0  0  0  0  0  0  0
    5.4641    1.2500    0.0000 C   0  0  0  0  0  0  0  0  0  0  0  0
    3.7320   -1.7500    0.0000 C   0  0  0  0  0  0  0  0  0  0  0  0
    3.7320   -0.7500    0.0000 C   0  0  0  0  0  0  0  0  0  0  0  0
    5.4641    2.2500    0.0000 C   0  0  0  0  0  0  0  0  0  0  0  0
    6.3301    0.7500    0.0000 C   0  0  0  0  0  0  0  0  0  0  0  0
    6.3301    2.7500    0.0000 C   0  0  0  0  0  0  0  0  0  0  0  0
    7.1962    1.2500    0.0000 C   0  0  0  0  0  0  0  0  0  0  0  0
    2.8660   -2.2500    0.0000 C   0  0  0  0  0  0  0  0  0  0  0  0
    4.5981   -2.2500    0.0000 C   0  0  0  0  0  0  0  0  0  0  0  0
    7.1962    2.2500    0.0000 C   0  0  0  0  0  0  0  0  0  0  0  0
    2.8660   -3.2500    0.0000 C   0  0  0  0  0  0  0  0  0  0  0  0
    4.5981   -3.2500    0.0000 C   0  0  0  0  0  0  0  0  0  0  0  0
    3.7320   -3.7500    0.0000 C   0  0  0  0  0  0  0  0  0  0  0  0
    4.3860    1.3326    0.0000 H   0  0  0  0  0  0  0  0  0  0  0  0
    3.9875    0.6423    0.0000 H   0  0  0  0  0  0  0  0  0  0  0  0
    5.1350   -0.5600    0.0000 H   0  0  0  0  0  0  0  0  0  0  0  0
    4.9272    2.5600    0.0000 H   0  0  0  0  0  0  0  0  0  0  0  0
    6.3301    0.1300    0.0000 H   0  0  0  0  0  0  0  0  0  0  0  0
    5.1350   -1.9400    0.0000 H   0  0  0  0  0  0  0  0  0  0  0  0
    7.7331    0.9400    0.0000 H   0  0  0  0  0  0  0  0  0  0  0  0
    7.7331    2.5600    0.0000 H   0  0  0  0  0  0  0  0  0  0  0  0
    2.3291   -3.5600    0.0000 H   0  0  0  0  0  0  0  0  0  0  0  0
    5.1350   -3.5600    0.0000 H   0  0  0  0  0  0  0  0  0  0  0  0
    3.7320   -4.3700    0.0000 H   0  0  0  0  0  0  0  0  0  0  0  0
  1 13  1  0  0  0  0
  2 11  1  0  0  0  0
  3  8  2  0  0  0  0
  4  5  1  0  0  0  0
  4  8  1  0  0  0  0
  4 21  1  0  0  0  0
  5  6  1  0  0  0  0
  5 19  1  0  0  0  0
  5 20  1  0  0  0  0
  6  9  2  0  0  0  0
  6 10  1  0  0  0  0
  7  8  1  0  0  0  0
  7 13  1  0  0  0  0
  7 14  2  0  0  0  0
  9 11  1  0  0  0  0
  9 22  1  0  0  0  0
 10 12  2  0  0  0  0
 10 23  1  0  0  0  0
 11 15  2  0  0  0  0
 12 15  1  0  0  0  0
 12 25  1  0  0  0  0
 13 16  2  0  0  0  0
 14 17  1  0  0  0  0
 14 24  1  0  0  0  0
 15 26  1  0  0  0  0
 16 18  1  0  0  0  0
 16 27  1  0  0  0  0
 17 18  2  0  0  0  0
 17 28  1  0  0  0  0
 18 29  1  0  0  0  0
M  END
> <PUBCHEM_COMPOUND_CID>
55576713

> <PUBCHEM_COMPOUND_CANONICALIZED>
1

> <PUBCHEM_CACTVS_COMPLEXITY>
287

> <PUBCHEM_CACTVS_HBOND_ACCEPTOR>
1

> <PUBCHEM_CACTVS_HBOND_DONOR>
1

> <PUBCHEM_CACTVS_ROTATABLE_BOND>
3

> <PUBCHEM_CACTVS_SUBSKEYS>
AAADccByIAAAEgAAAAAAAAAAAAAAAAAAAAAwYAAAAAAAAAABQAAAHgBwAAABrADDmAQwAILAAACIAiFSEACCAAAkAAQIiIEIBOgIIDKAlRGEIQhghgCIi5cYiACOAAAAEAAAAAAAAAAgAAAAAAAAAAAAAA==

> <PUBCHEM_IUPAC_OPENEYE_NAME>
N-[(3-bromophenyl)methyl]-2-iodo-benzamide

> <PUBCHEM_IUPAC_CAS_NAME>
N-[(3-bromophenyl)methyl]-2-iodobenzamide

> <PUBCHEM_IUPAC_NAME>
N-[(3-bromophenyl)methyl]-2-iodobenzamide

> <PUBCHEM_IUPAC_SYSTEMATIC_NAME>
N-[(3-bromophenyl)methyl]-2-iodanyl-benzamide

> <PUBCHEM_IUPAC_TRADITIONAL_NAME>
N-(3-bromobenzyl)-2-iodo-benzamide

> <PUBCHEM_IUPAC_INCHI>
InChI=1S/C14H11BrINO/c15-11-5-3-4-10(8-11)9-17-14(18)12-6-1-2-7-13(12)16/h1-8H,9H2,(H,17,18)

> <PUBCHEM_IUPAC_INCHIKEY>
CBOOYGDRTYIZCI-UHFFFAOYSA-N

> <PUBCHEM_XLOGP3>
3.6

> <PUBCHEM_EXACT_MASS>
414.906874

> <PUBCHEM_MOLECULAR_FORMULA>
C14H11BrINO

> <PUBCHEM_MOLECULAR_WEIGHT>
416.05171

> <PUBCHEM_OPENEYE_CAN_SMILES>
C1=CC=C(C(=C1)C(=O)NCC2=CC(=CC=C2)Br)I

> <PUBCHEM_OPENEYE_ISO_SMILES>
C1=CC=C(C(=C1)C(=O)NCC2=CC(=CC=C2)Br)I

> <PUBCHEM_CACTVS_TPSA>
29.1

> <PUBCHEM_MONOISOTOPIC_WEIGHT>
414.906874

> <PUBCHEM_TOTAL_CHARGE>
0

> <PUBCHEM_HEAVY_ATOM_COUNT>
18

> <PUBCHEM_ATOM_DEF_STEREO_COUNT>
0

> <PUBCHEM_ATOM_UDEF_STEREO_COUNT>
0

> <PUBCHEM_BOND_DEF_STEREO_COUNT>
0

> <PUBCHEM_BOND_UDEF_STEREO_COUNT>
0

> <PUBCHEM_ISOTOPIC_ATOM_COUNT>
0

> <PUBCHEM_COMPONENT_COUNT>
1

> <PUBCHEM_CACTVS_TAUTO_COUNT>
2

> <PUBCHEM_COORDINATE_TYPE>
1
5
255

> <PUBCHEM_BONDANNOTATIONS>
10  12  8
11  15  8
12  15  8
13  16  8
14  17  8
16  18  8
17  18  8
6  10  8
6  9  8
7  13  8
7  14  8
9  11  8

$$$$
55577940
  -OEChem-11301218082D

 44 46  0     1  0  0  0  0  0999 V2000
    7.1962    1.2327    0.0000 O   0  0  0  0  0  0  0  0  0  0  0  0
    6.3301   -0.2673    0.0000 N   0  0  0  0  0  0  0  0  0  0  0  0
    5.4641    0.2327    0.0000 C   0  0  3  0  0  0  0  0  0  0  0  0
    4.5981   -0.2673    0.0000 C   0  0  0  0  0  0  0  0  0  0  0  0
    8.0622   -0.2673    0.0000 C   0  0  0  0  0  0  0  0  0  0  0  0
    8.9282    0.2327    0.0000 C   0  0  0  0  0  0  0  0  0  0  0  0
    5.4641    1.2327    0.0000 C   0  0  0  0  0  0  0  0  0  0  0  0
    7.1962    0.2327    0.0000 C   0  0  0  0  0  0  0  0  0  0  0  0
   10.6603    0.2327    0.0000 C   0  0  0  0  0  0  0  0  0  0  0  0
    9.7942   -0.2673    0.0000 C   0  0  0  0  0  0  0  0  0  0  0  0
   10.6603    1.2327    0.0000 C   0  0  0  0  0  0  0  0  0  0  0  0
    4.5981   -1.2673    0.0000 C   0  0  0  0  0  0  0  0  0  0  0  0
    3.7320    0.2327    0.0000 C   0  0  0  0  0  0  0  0  0  0  0  0
    8.9282    1.2327    0.0000 C   0  0  0  0  0  0  0  0  0  0  0  0
    9.7942    1.7327    0.0000 C   0  0  0  0  0  0  0  0  0  0  0  0
    2.8660   -1.2673    0.0000 C   0  0  0  0  0  0  0  0  0  0  0  0
    3.7320   -1.7673    0.0000 C   0  0  0  0  0  0  0  0  0  0  0  0
    2.8660   -0.2673    0.0000 C   0  0  0  0  0  0  0  0  0  0  0  0
   11.5542   -0.3020    0.0000 C   0  0  0  0  0  0  0  0  0  0  0  0
   11.5542    1.7673    0.0000 C   0  0  0  0  0  0  0  0  0  0  0  0
   12.4603    0.2119    0.0000 C   0  0  0  0  0  0  0  0  0  0  0  0
   12.4603    1.2535    0.0000 C   0  0  0  0  0  0  0  0  0  0  0  0
    2.0000   -1.7673    0.0000 C   0  0  0  0  0  0  0  0  0  0  0  0
    5.4641   -0.3873    0.0000 H   0  0  0  0  0  0  0  0  0  0  0  0
    7.6636   -0.7423    0.0000 H   0  0  0  0  0  0  0  0  0  0  0  0
    8.4607   -0.7423    0.0000 H   0  0  0  0  0  0  0  0  0  0  0  0
    6.3301   -0.8873    0.0000 H   0  0  0  0  0  0  0  0  0  0  0  0
    6.0841    1.2327    0.0000 H   0  0  0  0  0  0  0  0  0  0  0  0
    5.4641    1.8527    0.0000 H   0  0  0  0  0  0  0  0  0  0  0  0
    4.8441    1.2327    0.0000 H   0  0  0  0  0  0  0  0  0  0  0  0
    9.7942   -0.8873    0.0000 H   0  0  0  0  0  0  0  0  0  0  0  0
    5.1350   -1.5773    0.0000 H   0  0  0  0  0  0  0  0  0  0  0  0
    3.7320    0.8527    0.0000 H   0  0  0  0  0  0  0  0  0  0  0  0
    8.3913    1.5427    0.0000 H   0  0  0  0  0  0  0  0  0  0  0  0
    9.7942    2.3527    0.0000 H   0  0  0  0  0  0  0  0  0  0  0  0
    3.7320   -2.3873    0.0000 H   0  0  0  0  0  0  0  0  0  0  0  0
    2.3291    0.0427    0.0000 H   0  0  0  0  0  0  0  0  0  0  0  0
   11.5470   -0.9220    0.0000 H   0  0  0  0  0  0  0  0  0  0  0  0
   11.5470    2.3873    0.0000 H   0  0  0  0  0  0  0  0  0  0  0  0
   12.9960   -0.1002    0.0000 H   0  0  0  0  0  0  0  0  0  0  0  0
   12.9960    1.5656    0.0000 H   0  0  0  0  0  0  0  0  0  0  0  0
    1.6900   -1.2304    0.0000 H   0  0  0  0  0  0  0  0  0  0  0  0
    1.4631   -2.0773    0.0000 H   0  0  0  0  0  0  0  0  0  0  0  0
    2.3100   -2.3043    0.0000 H   0  0  0  0  0  0  0  0  0  0  0  0
  1  8  2  0  0  0  0
  2  3  1  0  0  0  0
  2  8  1  0  0  0  0
  2 27  1  0  0  0  0
  3  4  1  0  0  0  0
  3  7  1  0  0  0  0
  3 24  1  0  0  0  0
  4 12  2  0  0  0  0
  4 13  1  0  0  0  0
  5  6  1  0  0  0  0
  5  8  1  0  0  0  0
  5 25  1  0  0  0  0
  5 26  1  0  0  0  0
  6 10  2  0  0  0  0
  6 14  1  0  0  0  0
  7 28  1  0  0  0  0
  7 29  1  0  0  0  0
  7 30  1  0  0  0  0
  9 10  1  0  0  0  0
  9 11  1  0  0  0  0
  9 19  2  0  0  0  0
 10 31  1  0  0  0  0
 11 15  1  0  0  0  0
 11 20  2  0  0  0  0
 12 17  1  0  0  0  0
 12 32  1  0  0  0  0
 13 18  2  0  0  0  0
 13 33  1  0  0  0  0
 14 15  2  0  0  0  0
 14 34  1  0  0  0  0
 15 35  1  0  0  0  0
 16 17  2  0  0  0  0
 16 18  1  0  0  0  0
 16 23  1  0  0  0  0
 17 36  1  0  0  0  0
 18 37  1  0  0  0  0
 19 21  1  0  0  0  0
 19 38  1  0  0  0  0
 20 22  1  0  0  0  0
 20 39  1  0  0  0  0
 21 22  2  0  0  0  0
 21 40  1  0  0  0  0
 22 41  1  0  0  0  0
 23 42  1  0  0  0  0
 23 43  1  0  0  0  0
 23 44  1  0  0  0  0
M  END
> <PUBCHEM_COMPOUND_CID>
55577940

> <PUBCHEM_COMPOUND_CANONICALIZED>
1

> <PUBCHEM_CACTVS_COMPLEXITY>
385

> <PUBCHEM_CACTVS_HBOND_ACCEPTOR>
1

> <PUBCHEM_CACTVS_HBOND_DONOR>
1

> <PUBCHEM_CACTVS_ROTATABLE_BOND>
4

> <PUBCHEM_CACTVS_SUBSKEYS>
AAADceB6IAAAAAAAAAAAAAAAAAAAAAAAAAAwYMAAAAAAAADBVAAAHgAQAAAADCjBmAQyAMLAAACIAiFSEACCAAAgAAAIiIEIBIgIIDKAlRGEIAhglgCIiAcYiMCOwAACAAAQAACAAAQAACAAAAAAAAAAAA==

> <PUBCHEM_IUPAC_OPENEYE_NAME>
2-(2-naphthyl)-N-[1-(p-tolyl)ethyl]acetamide

> <PUBCHEM_IUPAC_CAS_NAME>
N-[1-(4-methylphenyl)ethyl]-2-(2-naphthalenyl)acetamide

> <PUBCHEM_IUPAC_NAME>
N-[1-(4-methylphenyl)ethyl]-2-naphthalen-2-ylacetamide

> <PUBCHEM_IUPAC_SYSTEMATIC_NAME>
N-[1-(4-methylphenyl)ethyl]-2-naphthalen-2-yl-ethanamide

> <PUBCHEM_IUPAC_TRADITIONAL_NAME>
2-(2-naphthyl)-N-[1-(p-tolyl)ethyl]acetamide

> <PUBCHEM_IUPAC_INCHI>
InChI=1S/C21H21NO/c1-15-7-10-18(11-8-15)16(2)22-21(23)14-17-9-12-19-5-3-4-6-20(19)13-17/h3-13,16H,14H2,1-2H3,(H,22,23)

> <PUBCHEM_IUPAC_INCHIKEY>
QCQRGGMTFFABCD-UHFFFAOYSA-N

> <PUBCHEM_XLOGP3>
4.8

> <PUBCHEM_EXACT_MASS>
303.162314

> <PUBCHEM_MOLECULAR_FORMULA>
C21H21NO

> <PUBCHEM_MOLECULAR_WEIGHT>
303.39754

> <PUBCHEM_OPENEYE_CAN_SMILES>
CC1=CC=C(C=C1)C(C)NC(=O)CC2=CC3=CC=CC=C3C=C2

> <PUBCHEM_OPENEYE_ISO_SMILES>
CC1=CC=C(C=C1)C(C)NC(=O)CC2=CC3=CC=CC=C3C=C2

> <PUBCHEM_CACTVS_TPSA>
29.1

> <PUBCHEM_MONOISOTOPIC_WEIGHT>
303.162314

> <PUBCHEM_TOTAL_CHARGE>
0

> <PUBCHEM_HEAVY_ATOM_COUNT>
23

> <PUBCHEM_ATOM_DEF_STEREO_COUNT>
0

> <PUBCHEM_ATOM_UDEF_STEREO_COUNT>
1

> <PUBCHEM_BOND_DEF_STEREO_COUNT>
0

> <PUBCHEM_BOND_UDEF_STEREO_COUNT>
0

> <PUBCHEM_ISOTOPIC_ATOM_COUNT>
0

> <PUBCHEM_COMPONENT_COUNT>
1

> <PUBCHEM_CACTVS_TAUTO_COUNT>
2

> <PUBCHEM_COORDINATE_TYPE>
1
5
255

> <PUBCHEM_BONDANNOTATIONS>
11  15  8
11  20  8
12  17  8
13  18  8
14  15  8
16  17  8
16  18  8
19  21  8
20  22  8
21  22  8
3  7  3
4  12  8
4  13  8
6  10  8
6  14  8
9  10  8
9  11  8
9  19  8

$$$$
55583279
  -OEChem-11301218092D

 49 52  0     0  0  0  0  0  0999 V2000
    6.1851    4.7984    0.0000 Br  0  0  0  0  0  0  0  0  0  0  0  0
    7.9244   -1.0304    0.0000 O   0  0  0  0  0  0  0  0  0  0  0  0
    7.5673    0.6644    0.0000 N   0  0  0  0  0  0  0  0  0  0  0  0
    4.6783   -4.2090    0.0000 N   0  0  0  0  0  0  0  0  0  0  0  0
    8.5458    0.8706    0.0000 C   0  0  0  0  0  0  0  0  0  0  0  0
    9.4963    0.5600    0.0000 C   0  0  0  0  0  0  0  0  0  0  0  0
    9.2901    1.5385    0.0000 C   0  0  0  0  0  0  0  0  0  0  0  0
    6.8994    1.4087    0.0000 C   0  0  0  0  0  0  0  0  0  0  0  0
    7.2566   -0.2861    0.0000 C   0  0  0  0  0  0  0  0  0  0  0  0
    6.2781   -0.4923    0.0000 C   0  0  0  0  0  0  0  0  0  0  0  0
    7.2101    2.3592    0.0000 C   0  0  0  0  0  0  0  0  0  0  0  0
    5.9674   -1.4428    0.0000 C   0  0  0  0  0  0  0  0  0  0  0  0
    4.9889   -1.6491    0.0000 C   0  0  0  0  0  0  0  0  0  0  0  0
    4.6783   -2.5996    0.0000 C   0  0  0  0  0  0  0  0  0  0  0  0
    6.5422    3.1035    0.0000 C   0  0  0  0  0  0  0  0  0  0  0  0
    8.1886    2.5655    0.0000 C   0  0  0  0  0  0  0  0  0  0  0  0
    3.7320   -2.9043    0.0000 C   0  0  0  0  0  0  0  0  0  0  0  0
    5.2619   -3.4043    0.0000 C   0  0  0  0  0  0  0  0  0  0  0  0
    3.7320   -3.9043    0.0000 C   0  0  0  0  0  0  0  0  0  0  0  0
    6.8529    4.0541    0.0000 C   0  0  0  0  0  0  0  0  0  0  0  0
    8.4993    3.5160    0.0000 C   0  0  0  0  0  0  0  0  0  0  0  0
    2.8660   -2.4043    0.0000 C   0  0  0  0  0  0  0  0  0  0  0  0
    7.8314    4.2603    0.0000 C   0  0  0  0  0  0  0  0  0  0  0  0
    2.8660   -4.4043    0.0000 C   0  0  0  0  0  0  0  0  0  0  0  0
    2.0000   -2.9043    0.0000 C   0  0  0  0  0  0  0  0  0  0  0  0
    2.0000   -3.9043    0.0000 C   0  0  0  0  0  0  0  0  0  0  0  0
    8.5123    0.2515    0.0000 H   0  0  0  0  0  0  0  0  0  0  0  0
    9.4090   -0.0538    0.0000 H   0  0  0  0  0  0  0  0  0  0  0  0
   10.1160    0.5805    0.0000 H   0  0  0  0  0  0  0  0  0  0  0  0
    9.8653    1.7697    0.0000 H   0  0  0  0  0  0  0  0  0  0  0  0
    8.9624    2.0648    0.0000 H   0  0  0  0  0  0  0  0  0  0  0  0
    6.3525    1.7007    0.0000 H   0  0  0  0  0  0  0  0  0  0  0  0
    6.5169    0.9208    0.0000 H   0  0  0  0  0  0  0  0  0  0  0  0
    6.2575    0.1273    0.0000 H   0  0  0  0  0  0  0  0  0  0  0  0
    5.6643   -0.4050    0.0000 H   0  0  0  0  0  0  0  0  0  0  0  0
    5.9880   -2.0625    0.0000 H   0  0  0  0  0  0  0  0  0  0  0  0
    6.5812   -1.5302    0.0000 H   0  0  0  0  0  0  0  0  0  0  0  0
    4.9684   -1.0294    0.0000 H   0  0  0  0  0  0  0  0  0  0  0  0
    4.3751   -1.5617    0.0000 H   0  0  0  0  0  0  0  0  0  0  0  0
    5.9356    2.9757    0.0000 H   0  0  0  0  0  0  0  0  0  0  0  0
    8.6027    2.1040    0.0000 H   0  0  0  0  0  0  0  0  0  0  0  0
    5.8819   -3.4043    0.0000 H   0  0  0  0  0  0  0  0  0  0  0  0
    4.8709   -4.7984    0.0000 H   0  0  0  0  0  0  0  0  0  0  0  0
    9.1059    3.6438    0.0000 H   0  0  0  0  0  0  0  0  0  0  0  0
    2.8660   -1.7843    0.0000 H   0  0  0  0  0  0  0  0  0  0  0  0
    8.0240    4.8496    0.0000 H   0  0  0  0  0  0  0  0  0  0  0  0
    2.8660   -5.0243    0.0000 H   0  0  0  0  0  0  0  0  0  0  0  0
    1.4631   -2.5943    0.0000 H   0  0  0  0  0  0  0  0  0  0  0  0
    1.4631   -4.2143    0.0000 H   0  0  0  0  0  0  0  0  0  0  0  0
  1 20  1  0  0  0  0
  2  9  2  0  0  0  0
  3  5  1  0  0  0  0
  3  8  1  0  0  0  0
  3  9  1  0  0  0  0
  4 18  1  0  0  0  0
  4 19  1  0  0  0  0
  4 43  1  0  0  0  0
  5  6  1  0  0  0  0
  5  7  1  0  0  0  0
  5 27  1  0  0  0  0
  6  7  1  0  0  0  0
  6 28  1  0  0  0  0
  6 29  1  0  0  0  0
  7 30  1  0  0  0  0
  7 31  1  0  0  0  0
  8 11  1  0  0  0  0
  8 32  1  0  0  0  0
  8 33  1  0  0  0  0
  9 10  1  0  0  0  0
 10 12  1  0  0  0  0
 10 34  1  0  0  0  0
 10 35  1  0  0  0  0
 11 15  2  0  0  0  0
 11 16  1  0  0  0  0
 12 13  1  0  0  0  0
 12 36  1  0  0  0  0
 12 37  1  0  0  0  0
 13 14  1  0  0  0  0
 13 38  1  0  0  0  0
 13 39  1  0  0  0  0
 14 17  1  0  0  0  0
 14 18  2  0  0  0  0
 15 20  1  0  0  0  0
 15 40  1  0  0  0  0
 16 21  2  0  0  0  0
 16 41  1  0  0  0  0
 17 19  1  0  0  0  0
 17 22  2  0  0  0  0
 18 42  1  0  0  0  0
 19 24  2  0  0  0  0
 20 23  2  0  0  0  0
 21 23  1  0  0  0  0
 21 44  1  0  0  0  0
 22 25  1  0  0  0  0
 22 45  1  0  0  0  0
 23 46  1  0  0  0  0
 24 26  1  0  0  0  0
 24 47  1  0  0  0  0
 25 26  2  0  0  0  0
 25 48  1  0  0  0  0
 26 49  1  0  0  0  0
M  END
> <PUBCHEM_COMPOUND_CID>
55583279

> <PUBCHEM_COMPOUND_CANONICALIZED>
1

> <PUBCHEM_CACTVS_COMPLEXITY>
481

> <PUBCHEM_CACTVS_HBOND_ACCEPTOR>
1

> <PUBCHEM_CACTVS_HBOND_DONOR>
1

> <PUBCHEM_CACTVS_ROTATABLE_BOND>
7

> <PUBCHEM_CACTVS_SUBSKEYS>
AAADceB7IAAAEAAAAAAAAAAAGAAAAWAAAAAwYAAAAAAAAFgB9AAAHgBQAAABrCjBngQ8wPPJkACoAzV3VACCgCAxAiQI2aE4ZLgIIPLAkZGEIAhglgDIyhcYiMCOgAAAEAACAAAAAAAgAAQAAAAAAAAAAA==

> <PUBCHEM_IUPAC_OPENEYE_NAME>
N-[(3-bromophenyl)methyl]-N-cyclopropyl-4-(1H-indol-3-yl)butanamide

> <PUBCHEM_IUPAC_CAS_NAME>
N-[(3-bromophenyl)methyl]-N-cyclopropyl-4-(1H-indol-3-yl)butanamide

> <PUBCHEM_IUPAC_NAME>
N-[(3-bromophenyl)methyl]-N-cyclopropyl-4-(1H-indol-3-yl)butanamide

> <PUBCHEM_IUPAC_SYSTEMATIC_NAME>
N-[(3-bromophenyl)methyl]-N-cyclopropyl-4-(1H-indol-3-yl)butanamide

> <PUBCHEM_IUPAC_TRADITIONAL_NAME>
N-(3-bromobenzyl)-N-cyclopropyl-4-(1H-indol-3-yl)butyramide

> <PUBCHEM_IUPAC_INCHI>
InChI=1S/C22H23BrN2O/c23-18-7-3-5-16(13-18)15-25(19-11-12-19)22(26)10-4-6-17-14-24-21-9-2-1-8-20(17)21/h1-3,5,7-9,13-14,19,24H,4,6,10-12,15H2

> <PUBCHEM_IUPAC_INCHIKEY>
JLCAQOVVSKAAFY-UHFFFAOYSA-N

> <PUBCHEM_XLOGP3>
5

> <PUBCHEM_EXACT_MASS>
410.099375

> <PUBCHEM_MOLECULAR_FORMULA>
C22H23BrN2O

> <PUBCHEM_MOLECULAR_WEIGHT>
411.33482

> <PUBCHEM_OPENEYE_CAN_SMILES>
C1CC1N(CC2=CC(=CC=C2)Br)C(=O)CCCC3=CNC4=CC=CC=C43

> <PUBCHEM_OPENEYE_ISO_SMILES>
C1CC1N(CC2=CC(=CC=C2)Br)C(=O)CCCC3=CNC4=CC=CC=C43

> <PUBCHEM_CACTVS_TPSA>
36.1

> <PUBCHEM_MONOISOTOPIC_WEIGHT>
410.099375

> <PUBCHEM_TOTAL_CHARGE>
0

> <PUBCHEM_HEAVY_ATOM_COUNT>
26

> <PUBCHEM_ATOM_DEF_STEREO_COUNT>
0

> <PUBCHEM_ATOM_UDEF_STEREO_COUNT>
0

> <PUBCHEM_BOND_DEF_STEREO_COUNT>
0

> <PUBCHEM_BOND_UDEF_STEREO_COUNT>
0

> <PUBCHEM_ISOTOPIC_ATOM_COUNT>
0

> <PUBCHEM_COMPONENT_COUNT>
1

> <PUBCHEM_CACTVS_TAUTO_COUNT>
1

> <PUBCHEM_COORDINATE_TYPE>
1
5
255

> <PUBCHEM_BONDANNOTATIONS>
11  15  8
11  16  8
14  17  8
14  18  8
15  20  8
16  21  8
17  19  8
17  22  8
19  24  8
20  23  8
21  23  8
22  25  8
24  26  8
25  26  8
4  18  8
4  19  8

$$$$
55594097
  -OEChem-11301218092D

 46 49  0     1  0  0  0  0  0999 V2000
    6.8529    4.4262    0.0000 Cl  0  0  0  0  0  0  0  0  0  0  0  0
    6.6353   -1.8150    0.0000 O   0  0  0  0  0  0  0  0  0  0  0  0
    6.2781   -0.1202    0.0000 N   0  0  0  0  0  0  0  0  0  0  0  0
    4.6783   -3.8369    0.0000 N   0  0  0  0  0  0  0  0  0  0  0  0
    7.2566    0.0861    0.0000 C   0  0  0  0  0  0  0  0  0  0  0  0
    8.2071   -0.2246    0.0000 C   0  0  0  0  0  0  0  0  0  0  0  0
    8.0009    0.7539    0.0000 C   0  0  0  0  0  0  0  0  0  0  0  0
    5.6103    0.6241    0.0000 C   0  0  3  0  0  0  0  0  0  0  0  0
    5.9674   -1.0707    0.0000 C   0  0  0  0  0  0  0  0  0  0  0  0
    5.9209    1.5747    0.0000 C   0  0  0  0  0  0  0  0  0  0  0  0
    4.6318    0.4179    0.0000 C   0  0  0  0  0  0  0  0  0  0  0  0
    4.9889   -1.2769    0.0000 C   0  0  0  0  0  0  0  0  0  0  0  0
    4.6783   -2.2274    0.0000 C   0  0  0  0  0  0  0  0  0  0  0  0
    5.2531    2.3190    0.0000 C   0  0  0  0  0  0  0  0  0  0  0  0
    6.8994    1.7809    0.0000 C   0  0  0  0  0  0  0  0  0  0  0  0
    3.7320   -2.5322    0.0000 C   0  0  0  0  0  0  0  0  0  0  0  0
    5.2619   -3.0322    0.0000 C   0  0  0  0  0  0  0  0  0  0  0  0
    3.7320   -3.5322    0.0000 C   0  0  0  0  0  0  0  0  0  0  0  0
    5.5637    3.2695    0.0000 C   0  0  0  0  0  0  0  0  0  0  0  0
    7.2101    2.7314    0.0000 C   0  0  0  0  0  0  0  0  0  0  0  0
    2.8660   -2.0322    0.0000 C   0  0  0  0  0  0  0  0  0  0  0  0
    6.5422    3.4757    0.0000 C   0  0  0  0  0  0  0  0  0  0  0  0
    2.8660   -4.0322    0.0000 C   0  0  0  0  0  0  0  0  0  0  0  0
    2.0000   -2.5322    0.0000 C   0  0  0  0  0  0  0  0  0  0  0  0
    2.0000   -3.5322    0.0000 C   0  0  0  0  0  0  0  0  0  0  0  0
    6.9761    0.6390    0.0000 H   0  0  0  0  0  0  0  0  0  0  0  0
    8.1198   -0.8384    0.0000 H   0  0  0  0  0  0  0  0  0  0  0  0
    8.8268   -0.2040    0.0000 H   0  0  0  0  0  0  0  0  0  0  0  0
    8.5762    0.9852    0.0000 H   0  0  0  0  0  0  0  0  0  0  0  0
    7.6733    1.2803    0.0000 H   0  0  0  0  0  0  0  0  0  0  0  0
    6.2169    0.7520    0.0000 H   0  0  0  0  0  0  0  0  0  0  0  0
    4.5039    1.0246    0.0000 H   0  0  0  0  0  0  0  0  0  0  0  0
    4.0251    0.2901    0.0000 H   0  0  0  0  0  0  0  0  0  0  0  0
    4.7596   -0.1888    0.0000 H   0  0  0  0  0  0  0  0  0  0  0  0
    4.9684   -0.6572    0.0000 H   0  0  0  0  0  0  0  0  0  0  0  0
    4.3751   -1.1896    0.0000 H   0  0  0  0  0  0  0  0  0  0  0  0
    4.6464    2.1911    0.0000 H   0  0  0  0  0  0  0  0  0  0  0  0
    7.3135    1.3194    0.0000 H   0  0  0  0  0  0  0  0  0  0  0  0
    5.8819   -3.0322    0.0000 H   0  0  0  0  0  0  0  0  0  0  0  0
    5.1497    3.7309    0.0000 H   0  0  0  0  0  0  0  0  0  0  0  0
    7.8168    2.8592    0.0000 H   0  0  0  0  0  0  0  0  0  0  0  0
    4.8709   -4.4262    0.0000 H   0  0  0  0  0  0  0  0  0  0  0  0
    2.8660   -1.4122    0.0000 H   0  0  0  0  0  0  0  0  0  0  0  0
    2.8660   -4.6522    0.0000 H   0  0  0  0  0  0  0  0  0  0  0  0
    1.4631   -2.2222    0.0000 H   0  0  0  0  0  0  0  0  0  0  0  0
    1.4631   -3.8422    0.0000 H   0  0  0  0  0  0  0  0  0  0  0  0
  1 22  1  0  0  0  0
  2  9  2  0  0  0  0
  3  5  1  0  0  0  0
  3  8  1  0  0  0  0
  3  9  1  0  0  0  0
  4 17  1  0  0  0  0
  4 18  1  0  0  0  0
  4 42  1  0  0  0  0
  5  6  1  0  0  0  0
  5  7  1  0  0  0  0
  5 26  1  0  0  0  0
  6  7  1  0  0  0  0
  6 27  1  0  0  0  0
  6 28  1  0  0  0  0
  7 29  1  0  0  0  0
  7 30  1  0  0  0  0
  8 10  1  0  0  0  0
  8 11  1  0  0  0  0
  8 31  1  0  0  0  0
  9 12  1  0  0  0  0
 10 14  2  0  0  0  0
 10 15  1  0  0  0  0
 11 32  1  0  0  0  0
 11 33  1  0  0  0  0
 11 34  1  0  0  0  0
 12 13  1  0  0  0  0
 12 35  1  0  0  0  0
 12 36  1  0  0  0  0
 13 16  1  0  0  0  0
 13 17  2  0  0  0  0
 14 19  1  0  0  0  0
 14 37  1  0  0  0  0
 15 20  2  0  0  0  0
 15 38  1  0  0  0  0
 16 18  1  0  0  0  0
 16 21  2  0  0  0  0
 17 39  1  0  0  0  0
 18 23  2  0  0  0  0
 19 22  2  0  0  0  0
 19 40  1  0  0  0  0
 20 22  1  0  0  0  0
 20 41  1  0  0  0  0
 21 24  1  0  0  0  0
 21 43  1  0  0  0  0
 23 25  1  0  0  0  0
 23 44  1  0  0  0  0
 24 25  2  0  0  0  0
 24 45  1  0  0  0  0
 25 46  1  0  0  0  0
M  END
> <PUBCHEM_COMPOUND_CID>
55594097

> <PUBCHEM_COMPOUND_CANONICALIZED>
1

> <PUBCHEM_CACTVS_COMPLEXITY>
473

> <PUBCHEM_CACTVS_HBOND_ACCEPTOR>
1

> <PUBCHEM_CACTVS_HBOND_DONOR>
1

> <PUBCHEM_CACTVS_ROTATABLE_BOND>
5

> <PUBCHEM_CACTVS_SUBSKEYS>
AAADceB7IAAEAAAAAAAAAAAAGAAAAWAAAAAwYAAAAAAAAFgB9AAAHgIQAAAADCrBniQ+wPPJkACoAzV3VACCgCAxByAI2aE4ZpgIIPLBl5GEIAhglgDIyAccicCehAAAAAACAAAIAAAAAAQAAAAAAAAAAA==

> <PUBCHEM_IUPAC_OPENEYE_NAME>
N-[1-(4-chlorophenyl)ethyl]-N-cyclopropyl-2-(1H-indol-3-yl)acetamide

> <PUBCHEM_IUPAC_CAS_NAME>
N-[1-(4-chlorophenyl)ethyl]-N-cyclopropyl-2-(1H-indol-3-yl)acetamide

> <PUBCHEM_IUPAC_NAME>
N-[1-(4-chlorophenyl)ethyl]-N-cyclopropyl-2-(1H-indol-3-yl)acetamide

> <PUBCHEM_IUPAC_SYSTEMATIC_NAME>
N-[1-(4-chlorophenyl)ethyl]-N-cyclopropyl-2-(1H-indol-3-yl)ethanamide

> <PUBCHEM_IUPAC_TRADITIONAL_NAME>
N-[1-(4-chlorophenyl)ethyl]-N-cyclopropyl-2-(1H-indol-3-yl)acetamide

> <PUBCHEM_IUPAC_INCHI>
InChI=1S/C21H21ClN2O/c1-14(15-6-8-17(22)9-7-15)24(18-10-11-18)21(25)12-16-13-23-20-5-3-2-4-19(16)20/h2-9,13-14,18,23H,10-12H2,1H3

> <PUBCHEM_IUPAC_INCHIKEY>
MKJQRKWXWZFDPI-UHFFFAOYSA-N

> <PUBCHEM_XLOGP3>
4.4

> <PUBCHEM_EXACT_MASS>
352.134241

> <PUBCHEM_MOLECULAR_FORMULA>
C21H21ClN2O

> <PUBCHEM_MOLECULAR_WEIGHT>
352.85724

> <PUBCHEM_OPENEYE_CAN_SMILES>
CC(C1=CC=C(C=C1)Cl)N(C2CC2)C(=O)CC3=CNC4=CC=CC=C43

> <PUBCHEM_OPENEYE_ISO_SMILES>
CC(C1=CC=C(C=C1)Cl)N(C2CC2)C(=O)CC3=CNC4=CC=CC=C43

> <PUBCHEM_CACTVS_TPSA>
36.1

> <PUBCHEM_MONOISOTOPIC_WEIGHT>
352.134241

> <PUBCHEM_TOTAL_CHARGE>
0

> <PUBCHEM_HEAVY_ATOM_COUNT>
25

> <PUBCHEM_ATOM_DEF_STEREO_COUNT>
0

> <PUBCHEM_ATOM_UDEF_STEREO_COUNT>
1

> <PUBCHEM_BOND_DEF_STEREO_COUNT>
0

> <PUBCHEM_BOND_UDEF_STEREO_COUNT>
0

> <PUBCHEM_ISOTOPIC_ATOM_COUNT>
0

> <PUBCHEM_COMPONENT_COUNT>
1

> <PUBCHEM_CACTVS_TAUTO_COUNT>
1

> <PUBCHEM_COORDINATE_TYPE>
1
5
255

> <PUBCHEM_BONDANNOTATIONS>
10  14  8
10  15  8
13  16  8
13  17  8
14  19  8
15  20  8
16  18  8
16  21  8
18  23  8
19  22  8
20  22  8
21  24  8
23  25  8
24  25  8
4  17  8
4  18  8
8  11  3

$$$$
55595240
  -OEChem-11301218092D

 48 50  0     0  0  0  0  0  0999 V2000
   10.5028    1.8212    0.0000 Cl  0  0  0  0  0  0  0  0  0  0  0  0
    7.9244   -0.4923    0.0000 O   0  0  0  0  0  0  0  0  0  0  0  0
    7.5673    1.2025    0.0000 N   0  0  0  0  0  0  0  0  0  0  0  0
    4.6783   -3.6710    0.0000 N   0  0  0  0  0  0  0  0  0  0  0  0
    4.9889   -1.1110    0.0000 C   0  0  0  0  0  0  0  0  0  0  0  0
    5.9674   -0.9048    0.0000 C   0  0  0  0  0  0  0  0  0  0  0  0
    4.6783   -2.0615    0.0000 C   0  0  0  0  0  0  0  0  0  0  0  0
    6.2781    0.0458    0.0000 C   0  0  0  0  0  0  0  0  0  0  0  0
    3.7320   -2.3662    0.0000 C   0  0  0  0  0  0  0  0  0  0  0  0
    7.2566    0.2520    0.0000 C   0  0  0  0  0  0  0  0  0  0  0  0
    3.7320   -3.3662    0.0000 C   0  0  0  0  0  0  0  0  0  0  0  0
    8.5458    1.4087    0.0000 C   0  0  0  0  0  0  0  0  0  0  0  0
    5.2619   -2.8662    0.0000 C   0  0  0  0  0  0  0  0  0  0  0  0
    6.8994    1.9468    0.0000 C   0  0  0  0  0  0  0  0  0  0  0  0
    2.8660   -1.8662    0.0000 C   0  0  0  0  0  0  0  0  0  0  0  0
    8.8564    2.3592    0.0000 C   0  0  0  0  0  0  0  0  0  0  0  0
    2.8660   -3.8662    0.0000 C   0  0  0  0  0  0  0  0  0  0  0  0
    5.9209    1.7406    0.0000 C   0  0  0  0  0  0  0  0  0  0  0  0
    2.0000   -2.3662    0.0000 C   0  0  0  0  0  0  0  0  0  0  0  0
    2.0000   -3.3662    0.0000 C   0  0  0  0  0  0  0  0  0  0  0  0
    9.8349    2.5655    0.0000 C   0  0  0  0  0  0  0  0  0  0  0  0
    8.1886    3.1035    0.0000 C   0  0  0  0  0  0  0  0  0  0  0  0
   10.1456    3.5160    0.0000 C   0  0  0  0  0  0  0  0  0  0  0  0
    8.4993    4.0541    0.0000 C   0  0  0  0  0  0  0  0  0  0  0  0
    9.4778    4.2603    0.0000 C   0  0  0  0  0  0  0  0  0  0  0  0
    4.9684   -0.4913    0.0000 H   0  0  0  0  0  0  0  0  0  0  0  0
    4.3751   -1.0236    0.0000 H   0  0  0  0  0  0  0  0  0  0  0  0
    5.9880   -1.5244    0.0000 H   0  0  0  0  0  0  0  0  0  0  0  0
    6.5812   -0.9921    0.0000 H   0  0  0  0  0  0  0  0  0  0  0  0
    6.2575    0.6654    0.0000 H   0  0  0  0  0  0  0  0  0  0  0  0
    5.6643    0.1331    0.0000 H   0  0  0  0  0  0  0  0  0  0  0  0
    8.5663    0.7891    0.0000 H   0  0  0  0  0  0  0  0  0  0  0  0
    9.1596    1.3214    0.0000 H   0  0  0  0  0  0  0  0  0  0  0  0
    5.8819   -2.8662    0.0000 H   0  0  0  0  0  0  0  0  0  0  0  0
    7.4258    2.2744    0.0000 H   0  0  0  0  0  0  0  0  0  0  0  0
    6.6682    2.5221    0.0000 H   0  0  0  0  0  0  0  0  0  0  0  0
    4.8709   -4.2603    0.0000 H   0  0  0  0  0  0  0  0  0  0  0  0
    2.8660   -1.2462    0.0000 H   0  0  0  0  0  0  0  0  0  0  0  0
    2.8660   -4.4862    0.0000 H   0  0  0  0  0  0  0  0  0  0  0  0
    5.7931    2.3473    0.0000 H   0  0  0  0  0  0  0  0  0  0  0  0
    5.3142    1.6127    0.0000 H   0  0  0  0  0  0  0  0  0  0  0  0
    6.0488    1.1339    0.0000 H   0  0  0  0  0  0  0  0  0  0  0  0
    1.4631   -2.0562    0.0000 H   0  0  0  0  0  0  0  0  0  0  0  0
    1.4631   -3.6762    0.0000 H   0  0  0  0  0  0  0  0  0  0  0  0
    7.5819    2.9757    0.0000 H   0  0  0  0  0  0  0  0  0  0  0  0
   10.7523    3.6438    0.0000 H   0  0  0  0  0  0  0  0  0  0  0  0
    8.0852    4.5155    0.0000 H   0  0  0  0  0  0  0  0  0  0  0  0
    9.6704    4.8496    0.0000 H   0  0  0  0  0  0  0  0  0  0  0  0
  1 21  1  0  0  0  0
  2 10  2  0  0  0  0
  3 10  1  0  0  0  0
  3 12  1  0  0  0  0
  3 14  1  0  0  0  0
  4 11  1  0  0  0  0
  4 13  1  0  0  0  0
  4 37  1  0  0  0  0
  5  6  1  0  0  0  0
  5  7  1  0  0  0  0
  5 26  1  0  0  0  0
  5 27  1  0  0  0  0
  6  8  1  0  0  0  0
  6 28  1  0  0  0  0
  6 29  1  0  0  0  0
  7  9  1  0  0  0  0
  7 13  2  0  0  0  0
  8 10  1  0  0  0  0
  8 30  1  0  0  0  0
  8 31  1  0  0  0  0
  9 11  1  0  0  0  0
  9 15  2  0  0  0  0
 11 17  2  0  0  0  0
 12 16  1  0  0  0  0
 12 32  1  0  0  0  0
 12 33  1  0  0  0  0
 13 34  1  0  0  0  0
 14 18  1  0  0  0  0
 14 35  1  0  0  0  0
 14 36  1  0  0  0  0
 15 19  1  0  0  0  0
 15 38  1  0  0  0  0
 16 21  1  0  0  0  0
 16 22  2  0  0  0  0
 17 20  1  0  0  0  0
 17 39  1  0  0  0  0
 18 40  1  0  0  0  0
 18 41  1  0  0  0  0
 18 42  1  0  0  0  0
 19 20  2  0  0  0  0
 19 43  1  0  0  0  0
 20 44  1  0  0  0  0
 21 23  2  0  0  0  0
 22 24  1  0  0  0  0
 22 45  1  0  0  0  0
 23 25  1  0  0  0  0
 23 46  1  0  0  0  0
 24 25  2  0  0  0  0
 24 47  1  0  0  0  0
 25 48  1  0  0  0  0
M  END
> <PUBCHEM_COMPOUND_CID>
55595240

> <PUBCHEM_COMPOUND_CANONICALIZED>
1

> <PUBCHEM_CACTVS_COMPLEXITY>
430

> <PUBCHEM_CACTVS_HBOND_ACCEPTOR>
1

> <PUBCHEM_CACTVS_HBOND_DONOR>
1

> <PUBCHEM_CACTVS_ROTATABLE_BOND>
7

> <PUBCHEM_CACTVS_SUBSKEYS>
AAADceB7IAAEAAAAAAAAAAAAAAAAAWAAAAAwYAAAAAAAAFgB9AAAHgIQAAAADArBniQ+wPPJkACoAzV3VACCgCAxByAI2aE4ZpgIIPLBk5GEIAhglgDIyAcYiMCOgAAAAAADAAAAAAAAAAYAAAAAAAAAAA==

> <PUBCHEM_IUPAC_OPENEYE_NAME>
N-[(2-chlorophenyl)methyl]-N-ethyl-4-(1H-indol-3-yl)butanamide

> <PUBCHEM_IUPAC_CAS_NAME>
N-[(2-chlorophenyl)methyl]-N-ethyl-4-(1H-indol-3-yl)butanamide

> <PUBCHEM_IUPAC_NAME>
N-[(2-chlorophenyl)methyl]-N-ethyl-4-(1H-indol-3-yl)butanamide

> <PUBCHEM_IUPAC_SYSTEMATIC_NAME>
N-[(2-chlorophenyl)methyl]-N-ethyl-4-(1H-indol-3-yl)butanamide

> <PUBCHEM_IUPAC_TRADITIONAL_NAME>
N-(2-chlorobenzyl)-N-ethyl-4-(1H-indol-3-yl)butyramide

> <PUBCHEM_IUPAC_INCHI>
InChI=1S/C21H23ClN2O/c1-2-24(15-17-8-3-5-11-19(17)22)21(25)13-7-9-16-14-23-20-12-6-4-10-18(16)20/h3-6,8,10-12,14,23H,2,7,9,13,15H2,1H3

> <PUBCHEM_IUPAC_INCHIKEY>
VEVUAODJMUYWFF-UHFFFAOYSA-N

> <PUBCHEM_XLOGP3>
4.7

> <PUBCHEM_EXACT_MASS>
354.149891

> <PUBCHEM_MOLECULAR_FORMULA>
C21H23ClN2O

> <PUBCHEM_MOLECULAR_WEIGHT>
354.87312

> <PUBCHEM_OPENEYE_CAN_SMILES>
CCN(CC1=CC=CC=C1Cl)C(=O)CCCC2=CNC3=CC=CC=C32

> <PUBCHEM_OPENEYE_ISO_SMILES>
CCN(CC1=CC=CC=C1Cl)C(=O)CCCC2=CNC3=CC=CC=C32

> <PUBCHEM_CACTVS_TPSA>
36.1

> <PUBCHEM_MONOISOTOPIC_WEIGHT>
354.149891

> <PUBCHEM_TOTAL_CHARGE>
0

> <PUBCHEM_HEAVY_ATOM_COUNT>
25

> <PUBCHEM_ATOM_DEF_STEREO_COUNT>
0

> <PUBCHEM_ATOM_UDEF_STEREO_COUNT>
0

> <PUBCHEM_BOND_DEF_STEREO_COUNT>
0

> <PUBCHEM_BOND_UDEF_STEREO_COUNT>
0

> <PUBCHEM_ISOTOPIC_ATOM_COUNT>
0

> <PUBCHEM_COMPONENT_COUNT>
1

> <PUBCHEM_CACTVS_TAUTO_COUNT>
1

> <PUBCHEM_COORDINATE_TYPE>
1
5
255

> <PUBCHEM_BONDANNOTATIONS>
11  17  8
15  19  8
16  21  8
16  22  8
17  20  8
19  20  8
21  23  8
22  24  8
23  25  8
24  25  8
4  11  8
4  13  8
7  13  8
7  9  8
9  11  8
9  15  8

$$$$
