52327687
  -OEChem-11301218022D

 28 29  0     1  0  0  0  0  0999 V2000
    2.8660    1.0000    0.0000 Cl  0  0  0  0  0  0  0  0  0  0  0  0
    3.7320    0.5000    0.0000 C   0  0  2  0  0  0  0  0  0  0  0  0
    3.7320   -0.5000    0.0000 C   0  0  0  0  0  0  0  0  0  0  0  0
    4.5981    1.0000    0.0000 C   0  0  0  0  0  0  0  0  0  0  0  0
    2.8660   -1.0000    0.0000 C   0  0  0  0  0  0  0  0  0  0  0  0
    4.5981   -1.0000    0.0000 C   0  0  0  0  0  0  0  0  0  0  0  0
    2.8660   -2.0000    0.0000 C   0  0  0  0  0  0  0  0  0  0  0  0
    5.4641    0.5000    0.0000 C   0  0  0  0  0  0  0  0  0  0  0  0
    4.5981    2.0000    0.0000 C   0  0  0  0  0  0  0  0  0  0  0  0
    2.0000   -0.5000    0.0000 C   0  0  0  0  0  0  0  0  0  0  0  0
    4.5981   -2.0000    0.0000 C   0  0  0  0  0  0  0  0  0  0  0  0
    3.7320   -2.5000    0.0000 C   0  0  0  0  0  0  0  0  0  0  0  0
    6.3301    1.0000    0.0000 C   0  0  0  0  0  0  0  0  0  0  0  0
    5.4641    2.5000    0.0000 C   0  0  0  0  0  0  0  0  0  0  0  0
    6.3301    2.0000    0.0000 C   0  0  0  0  0  0  0  0  0  0  0  0
    3.7320    1.1200    0.0000 H   0  0  0  0  0  0  0  0  0  0  0  0
    5.1350   -0.6900    0.0000 H   0  0  0  0  0  0  0  0  0  0  0  0
    2.3291   -2.3100    0.0000 H   0  0  0  0  0  0  0  0  0  0  0  0
    5.4641   -0.1200    0.0000 H   0  0  0  0  0  0  0  0  0  0  0  0
    4.0611    2.3100    0.0000 H   0  0  0  0  0  0  0  0  0  0  0  0
    2.3100    0.0369    0.0000 H   0  0  0  0  0  0  0  0  0  0  0  0
    1.4631   -0.1900    0.0000 H   0  0  0  0  0  0  0  0  0  0  0  0
    1.6900   -1.0369    0.0000 H   0  0  0  0  0  0  0  0  0  0  0  0
    5.1350   -2.3100    0.0000 H   0  0  0  0  0  0  0  0  0  0  0  0
    3.7320   -3.1200    0.0000 H   0  0  0  0  0  0  0  0  0  0  0  0
    6.8671    0.6900    0.0000 H   0  0  0  0  0  0  0  0  0  0  0  0
    5.4641    3.1200    0.0000 H   0  0  0  0  0  0  0  0  0  0  0  0
    6.8671    2.3100    0.0000 H   0  0  0  0  0  0  0  0  0  0  0  0
  2  1  1  1  0  0  0
  2  3  1  0  0  0  0
  2  4  1  0  0  0  0
  2 16  1  0  0  0  0
  3  5  1  0  0  0  0
  3  6  2  0  0  0  0
  4  8  2  0  0  0  0
  4  9  1  0  0  0  0
  5  7  2  0  0  0  0
  5 10  1  0  0  0  0
  6 11  1  0  0  0  0
  6 17  1  0  0  0  0
  7 12  1  0  0  0  0
  7 18  1  0  0  0  0
  8 13  1  0  0  0  0
  8 19  1  0  0  0  0
  9 14  2  0  0  0  0
  9 20  1  0  0  0  0
 10 21  1  0  0  0  0
 10 22  1  0  0  0  0
 10 23  1  0  0  0  0
 11 12  2  0  0  0  0
 11 24  1  0  0  0  0
 12 25  1  0  0  0  0
 13 15  2  0  0  0  0
 13 26  1  0  0  0  0
 14 15  1  0  0  0  0
 14 27  1  0  0  0  0
 15 28  1  0  0  0  0
M  END
> <PUBCHEM_COMPOUND_CID>
52327687

> <PUBCHEM_COMPOUND_CANONICALIZED>
1

> <PUBCHEM_CACTVS_COMPLEXITY>
184

> <PUBCHEM_CACTVS_HBOND_ACCEPTOR>
0

> <PUBCHEM_CACTVS_HBOND_DONOR>
0

> <PUBCHEM_CACTVS_ROTATABLE_BOND>
2

> <PUBCHEM_CACTVS_SUBSKEYS>
AAADccBwAAAEAAAAAAAAAAAAAAAAAAAAAAAwYAAAAAAAAAABQAAAGAIAAAAADAOAGEAyAIAAAACAAiBCAAACAAAgAAAIiAAAAogIICKBERCAIAAggAAIiAcAgMAOgAAAAAAQAAAAAAAAACAAAAAAAAAAAA==

> <PUBCHEM_IUPAC_OPENEYE_NAME>
1-[(S)-chloro(phenyl)methyl]-2-methyl-benzene

> <PUBCHEM_IUPAC_CAS_NAME>
1-[(S)-chloro(phenyl)methyl]-2-methylbenzene

> <PUBCHEM_IUPAC_NAME>
1-[(S)-chloro(phenyl)methyl]-2-methylbenzene

> <PUBCHEM_IUPAC_SYSTEMATIC_NAME>
1-[(S)-chloranyl(phenyl)methyl]-2-methyl-benzene

> <PUBCHEM_IUPAC_TRADITIONAL_NAME>
1-[(S)-chloro(phenyl)methyl]-2-methyl-benzene

> <PUBCHEM_IUPAC_INCHI>
InChI=1S/C14H13Cl/c1-11-7-5-6-10-13(11)14(15)12-8-3-2-4-9-12/h2-10,14H,1H3/t14-/m0/s1

> <PUBCHEM_IUPAC_INCHIKEY>
VTZTUKIBJQCCMO-AWEZNQCLSA-N

> <PUBCHEM_XLOGP3>
4.3

> <PUBCHEM_EXACT_MASS>
216.070578

> <PUBCHEM_MOLECULAR_FORMULA>
C14H13Cl

> <PUBCHEM_MOLECULAR_WEIGHT>
216.70602

> <PUBCHEM_OPENEYE_CAN_SMILES>
CC1=CC=CC=C1C(C2=CC=CC=C2)Cl

> <PUBCHEM_OPENEYE_ISO_SMILES>
CC1=CC=CC=C1[C@H](C2=CC=CC=C2)Cl

> <PUBCHEM_CACTVS_TPSA>
0

> <PUBCHEM_MONOISOTOPIC_WEIGHT>
216.070578

> <PUBCHEM_TOTAL_CHARGE>
0

> <PUBCHEM_HEAVY_ATOM_COUNT>
15

> <PUBCHEM_ATOM_DEF_STEREO_COUNT>
1

> <PUBCHEM_ATOM_UDEF_STEREO_COUNT>
0

> <PUBCHEM_BOND_DEF_STEREO_COUNT>
0

> <PUBCHEM_BOND_UDEF_STEREO_COUNT>
0

> <PUBCHEM_ISOTOPIC_ATOM_COUNT>
0

> <PUBCHEM_COMPONENT_COUNT>
1

> <PUBCHEM_CACTVS_TAUTO_COUNT>
1

> <PUBCHEM_COORDINATE_TYPE>
1
5
255

> <PUBCHEM_BONDANNOTATIONS>
2  1  5
11  12  8
13  15  8
14  15  8
3  5  8
3  6  8
4  8  8
4  9  8
5  7  8
6  11  8
7  12  8
8  13  8
9  14  8

$$$$
52330322
  -OEChem-11301218022D

 28 29  0     1  0  0  0  0  0999 V2000
    2.2412   -2.4545    0.0000 Br  0  0  0  0  0  0  0  0  0  0  0  0
    4.2320   -0.4886    0.0000 C   0  0  1  0  0  0  0  0  0  0  0  0
    3.7543    1.4600    0.0000 C   0  0  0  0  0  0  0  0  0  0  0  0
    4.4909    0.4774    0.0000 C   0  0  2  0  0  0  0  0  0  0  0  0
    2.5000   -1.4886    0.0000 C   0  0  1  0  0  0  0  0  0  0  0  0
    6.0640   -1.2474    0.0000 C   0  0  0  0  0  0  0  0  0  0  0  0
    2.0000   -0.6225    0.0000 C   0  0  0  0  0  0  0  0  0  0  0  0
    6.3228   -0.2815    0.0000 C   0  0  0  0  0  0  0  0  0  0  0  0
    3.9732   -1.4545    0.0000 C   0  0  0  0  0  0  0  0  0  0  0  0
    3.8588    2.4545    0.0000 C   0  0  0  0  0  0  0  0  0  0  0  0
    2.8407    1.8667    0.0000 C   0  0  0  0  0  0  0  0  0  0  0  0
    4.7109    1.2984    0.0000 H   0  0  0  0  0  0  0  0  0  0  0  0
    2.9919   -1.8660    0.0000 H   0  0  0  0  0  0  0  0  0  0  0  0
    5.8520   -1.8300    0.0000 H   0  0  0  0  0  0  0  0  0  0  0  0
    6.6553   -1.4338    0.0000 H   0  0  0  0  0  0  0  0  0  0  0  0
    1.7294   -0.0647    0.0000 H   0  0  0  0  0  0  0  0  0  0  0  0
    1.4523   -0.9131    0.0000 H   0  0  0  0  0  0  0  0  0  0  0  0
    6.9141   -0.4679    0.0000 H   0  0  0  0  0  0  0  0  0  0  0  0
    6.5349    0.3011    0.0000 H   0  0  0  0  0  0  0  0  0  0  0  0
    3.3744   -1.2940    0.0000 H   0  0  0  0  0  0  0  0  0  0  0  0
    3.8128   -2.0534    0.0000 H   0  0  0  0  0  0  0  0  0  0  0  0
    4.5721   -1.6150    0.0000 H   0  0  0  0  0  0  0  0  0  0  0  0
    4.4754    2.3897    0.0000 H   0  0  0  0  0  0  0  0  0  0  0  0
    3.9236    3.0711    0.0000 H   0  0  0  0  0  0  0  0  0  0  0  0
    3.2422    2.5193    0.0000 H   0  0  0  0  0  0  0  0  0  0  0  0
    3.0929    2.4331    0.0000 H   0  0  0  0  0  0  0  0  0  0  0  0
    2.2743    2.1189    0.0000 H   0  0  0  0  0  0  0  0  0  0  0  0
    2.5885    1.3003    0.0000 H   0  0  0  0  0  0  0  0  0  0  0  0
  5  1  1  6  0  0  0
  2  3  1  0  0  0  0
  2  5  1  0  0  0  0
  2  6  1  0  0  0  0
  2  9  1  1  0  0  0
  3  4  1  0  0  0  0
  3 10  1  0  0  0  0
  3 11  1  0  0  0  0
  4  7  1  0  0  0  0
  4  8  1  0  0  0  0
  4 12  1  6  0  0  0
  5  7  1  0  0  0  0
  5 13  1  0  0  0  0
  6  8  1  0  0  0  0
  6 14  1  0  0  0  0
  6 15  1  0  0  0  0
  7 16  1  0  0  0  0
  7 17  1  0  0  0  0
  8 18  1  0  0  0  0
  8 19  1  0  0  0  0
  9 20  1  0  0  0  0
  9 21  1  0  0  0  0
  9 22  1  0  0  0  0
 10 23  1  0  0  0  0
 10 24  1  0  0  0  0
 10 25  1  0  0  0  0
 11 26  1  0  0  0  0
 11 27  1  0  0  0  0
 11 28  1  0  0  0  0
M  END
> <PUBCHEM_COMPOUND_CID>
52330322

> <PUBCHEM_COMPOUND_CANONICALIZED>
1

> <PUBCHEM_CACTVS_COMPLEXITY>
185

> <PUBCHEM_CACTVS_HBOND_ACCEPTOR>
0

> <PUBCHEM_CACTVS_HBOND_DONOR>
0

> <PUBCHEM_CACTVS_ROTATABLE_BOND>
0

> <PUBCHEM_CACTVS_SUBSKEYS>
AAADceBwAAAAEAAAAAAAAAAAAAAAAYMAAAAwAAAAAAAAAAAAAAAAGABAAAABzwCAAAACAAAAAAAAAAAAAAAAAAAAAAAAAAAAACAAAAIAAAAAAAAAAAAAAAEAgMAPgAAAAAAAAACAAAAgAAEAAQgACEAAAA==

> <PUBCHEM_IUPAC_OPENEYE_NAME>
(1S,2R,4S)-2-bromo-1,7,7-trimethyl-norbornane

> <PUBCHEM_IUPAC_CAS_NAME>
(1S,3R,4S)-3-bromo-4,7,7-trimethylbicyclo[2.2.1]heptane

> <PUBCHEM_IUPAC_NAME>
(1S,3R,4S)-3-bromo-4,7,7-trimethylbicyclo[2.2.1]heptane

> <PUBCHEM_IUPAC_SYSTEMATIC_NAME>
(1S,3R,4S)-3-bromanyl-4,7,7-trimethyl-bicyclo[2.2.1]heptane

> <PUBCHEM_IUPAC_TRADITIONAL_NAME>
(1S,2R,4S)-2-bromo-1,7,7-trimethyl-norbornane

> <PUBCHEM_IUPAC_INCHI>
InChI=1S/C10H17Br/c1-9(2)7-4-5-10(9,3)8(11)6-7/h7-8H,4-6H2,1-3H3/t7-,8+,10+/m0/s1

> <PUBCHEM_IUPAC_INCHIKEY>
OTOQMOVZIUGCQE-QXFUBDJGSA-N

> <PUBCHEM_XLOGP3>
4.2

> <PUBCHEM_EXACT_MASS>
216.051363

> <PUBCHEM_MOLECULAR_FORMULA>
C10H17Br

> <PUBCHEM_MOLECULAR_WEIGHT>
217.14598

> <PUBCHEM_OPENEYE_CAN_SMILES>
CC1(C2CCC1(C(C2)Br)C)C

> <PUBCHEM_OPENEYE_ISO_SMILES>
C[C@]12CC[C@H](C1(C)C)C[C@H]2Br

> <PUBCHEM_CACTVS_TPSA>
0

> <PUBCHEM_MONOISOTOPIC_WEIGHT>
216.051363

> <PUBCHEM_TOTAL_CHARGE>
0

> <PUBCHEM_HEAVY_ATOM_COUNT>
11

> <PUBCHEM_ATOM_DEF_STEREO_COUNT>
3

> <PUBCHEM_ATOM_UDEF_STEREO_COUNT>
0

> <PUBCHEM_BOND_DEF_STEREO_COUNT>
0

> <PUBCHEM_BOND_UDEF_STEREO_COUNT>
0

> <PUBCHEM_ISOTOPIC_ATOM_COUNT>
0

> <PUBCHEM_COMPONENT_COUNT>
1

> <PUBCHEM_CACTVS_TAUTO_COUNT>
1

> <PUBCHEM_COORDINATE_TYPE>
1
5
255

> <PUBCHEM_BONDANNOTATIONS>
5  1  6
2  9  5
4  12  6

$$$$
52346667
  -OEChem-11301218032D

 45 47  0     0  0  0  0  0  0999 V2000
    2.0000   -0.1270    0.0000 F   0  0  0  0  0  0  0  0  0  0  0  0
    2.3660   -1.4930    0.0000 F   0  0  0  0  0  0  0  0  0  0  0  0
    3.3660    0.2390    0.0000 F   0  0  0  0  0  0  0  0  0  0  0  0
   15.0561   -0.1270    0.0000 F   0  0  0  0  0  0  0  0  0  0  0  0
   14.0561   -1.1270    0.0000 F   0  0  0  0  0  0  0  0  0  0  0  0
   14.0561    0.8730    0.0000 F   0  0  0  0  0  0  0  0  0  0  0  0
    8.0622   -0.6270    0.0000 O   0  0  0  0  0  0  0  0  0  0  0  0
    4.5981   -0.6270    0.0000 N   0  0  0  0  0  0  0  0  0  0  0  0
    6.3301    0.3730    0.0000 N   0  0  0  0  0  0  0  0  0  0  0  0
    8.9282    0.8730    0.0000 N   0  0  0  0  0  0  0  0  0  0  0  0
   12.4725    0.6777    0.0000 N   0  0  0  0  0  0  0  0  0  0  0  0
   12.4725   -0.9317    0.0000 N   0  0  0  0  0  0  0  0  0  0  0  0
    5.4641   -1.1270    0.0000 C   0  0  0  0  0  0  0  0  0  0  0  0
    4.5981    0.3730    0.0000 C   0  0  0  0  0  0  0  0  0  0  0  0
    5.4641    0.8730    0.0000 C   0  0  0  0  0  0  0  0  0  0  0  0
    6.3301   -0.6270    0.0000 C   0  0  0  0  0  0  0  0  0  0  0  0
    3.7320   -1.1270    0.0000 C   0  0  0  0  0  0  0  0  0  0  0  0
    7.1962    0.8730    0.0000 C   0  0  0  0  0  0  0  0  0  0  0  0
    2.8660   -0.6270    0.0000 C   0  0  0  0  0  0  0  0  0  0  0  0
    8.0622    0.3730    0.0000 C   0  0  0  0  0  0  0  0  0  0  0  0
    9.7942    0.3730    0.0000 C   0  0  0  0  0  0  0  0  0  0  0  0
   11.5263    0.3730    0.0000 C   0  0  0  0  0  0  0  0  0  0  0  0
   10.6603    0.8730    0.0000 C   0  0  0  0  0  0  0  0  0  0  0  0
   11.5263   -0.6270    0.0000 C   0  0  0  0  0  0  0  0  0  0  0  0
    9.7942   -0.6270    0.0000 C   0  0  0  0  0  0  0  0  0  0  0  0
   10.6603   -1.1270    0.0000 C   0  0  0  0  0  0  0  0  0  0  0  0
   13.0561   -0.1270    0.0000 C   0  0  0  0  0  0  0  0  0  0  0  0
   14.0561   -0.1270    0.0000 C   0  0  0  0  0  0  0  0  0  0  0  0
    5.8626    1.3480    0.0000 H   0  0  0  0  0  0  0  0  0  0  0  0
    5.0656    1.3480    0.0000 H   0  0  0  0  0  0  0  0  0  0  0  0
    6.5422   -1.2096    0.0000 H   0  0  0  0  0  0  0  0  0  0  0  0
    6.9407   -0.5193    0.0000 H   0  0  0  0  0  0  0  0  0  0  0  0
    4.3860    0.9556    0.0000 H   0  0  0  0  0  0  0  0  0  0  0  0
    3.9875    0.2654    0.0000 H   0  0  0  0  0  0  0  0  0  0  0  0
    5.0656   -1.6019    0.0000 H   0  0  0  0  0  0  0  0  0  0  0  0
    5.8626   -1.6019    0.0000 H   0  0  0  0  0  0  0  0  0  0  0  0
    3.3335   -1.6019    0.0000 H   0  0  0  0  0  0  0  0  0  0  0  0
    4.1306   -1.6019    0.0000 H   0  0  0  0  0  0  0  0  0  0  0  0
    7.5947    1.3480    0.0000 H   0  0  0  0  0  0  0  0  0  0  0  0
    6.7976    1.3480    0.0000 H   0  0  0  0  0  0  0  0  0  0  0  0
    8.9282    1.4930    0.0000 H   0  0  0  0  0  0  0  0  0  0  0  0
   10.6603    1.4930    0.0000 H   0  0  0  0  0  0  0  0  0  0  0  0
    9.2573   -0.9370    0.0000 H   0  0  0  0  0  0  0  0  0  0  0  0
   10.6603   -1.7470    0.0000 H   0  0  0  0  0  0  0  0  0  0  0  0
   12.6651    1.2671    0.0000 H   0  0  0  0  0  0  0  0  0  0  0  0
  1 19  1  0  0  0  0
  2 19  1  0  0  0  0
  3 19  1  0  0  0  0
  4 28  1  0  0  0  0
  5 28  1  0  0  0  0
  6 28  1  0  0  0  0
  7 20  2  0  0  0  0
  8 13  1  0  0  0  0
  8 14  1  0  0  0  0
  8 17  1  0  0  0  0
  9 15  1  0  0  0  0
  9 16  1  0  0  0  0
  9 18  1  0  0  0  0
 10 20  1  0  0  0  0
 10 21  1  0  0  0  0
 10 41  1  0  0  0  0
 11 22  1  0  0  0  0
 11 27  1  0  0  0  0
 11 45  1  0  0  0  0
 12 24  1  0  0  0  0
 12 27  2  0  0  0  0
 13 16  1  0  0  0  0
 13 35  1  0  0  0  0
 13 36  1  0  0  0  0
 14 15  1  0  0  0  0
 14 33  1  0  0  0  0
 14 34  1  0  0  0  0
 15 29  1  0  0  0  0
 15 30  1  0  0  0  0
 16 31  1  0  0  0  0
 16 32  1  0  0  0  0
 17 19  1  0  0  0  0
 17 37  1  0  0  0  0
 17 38  1  0  0  0  0
 18 20  1  0  0  0  0
 18 39  1  0  0  0  0
 18 40  1  0  0  0  0
 21 23  2  0  0  0  0
 21 25  1  0  0  0  0
 22 23  1  0  0  0  0
 22 24  2  0  0  0  0
 23 42  1  0  0  0  0
 24 26  1  0  0  0  0
 25 26  2  0  0  0  0
 25 43  1  0  0  0  0
 26 44  1  0  0  0  0
 27 28  1  0  0  0  0
M  END
> <PUBCHEM_COMPOUND_CID>
52346667

> <PUBCHEM_COMPOUND_CANONICALIZED>
1

> <PUBCHEM_CACTVS_COMPLEXITY>
549

> <PUBCHEM_CACTVS_HBOND_ACCEPTOR>
10

> <PUBCHEM_CACTVS_HBOND_DONOR>
2

> <PUBCHEM_CACTVS_ROTATABLE_BOND>
4

> <PUBCHEM_CACTVS_SUBSKEYS>
AAADceB7ocAAAAAAAAAAAAAAAAAAAWAAAAA8QAAAAAAAAFgB8AAAHwAQAAAACAjBlxQx0LfJkACoASdydACCgC2hEqAJmSC4dJiIaKLA2fGUJAholALIyCcQAAAAAACAAAQAACAAAQAACAAAQAAAAAAAAA==

> <PUBCHEM_IUPAC_OPENEYE_NAME>
2-[4-(2,2,2-trifluoroethyl)piperazin-1-yl]-N-[2-(trifluoromethyl)-3H-benzimidazol-5-yl]acetamide

> <PUBCHEM_IUPAC_CAS_NAME>
2-[4-(2,2,2-trifluoroethyl)-1-piperazinyl]-N-[2-(trifluoromethyl)-3H-benzimidazol-5-yl]acetamide

> <PUBCHEM_IUPAC_NAME>
2-[4-(2,2,2-trifluoroethyl)piperazin-1-yl]-N-[2-(trifluoromethyl)-3H-benzimidazol-5-yl]acetamide

> <PUBCHEM_IUPAC_SYSTEMATIC_NAME>
N-[2-(trifluoromethyl)-3H-benzimidazol-5-yl]-2-[4-[2,2,2-tris(fluoranyl)ethyl]piperazin-1-yl]ethanamide

> <PUBCHEM_IUPAC_TRADITIONAL_NAME>
2-[4-(2,2,2-trifluoroethyl)piperazino]-N-[2-(trifluoromethyl)-3H-benzimidazol-5-yl]acetamide

> <PUBCHEM_IUPAC_INCHI>
InChI=1S/C16H17F6N5O/c17-15(18,19)9-27-5-3-26(4-6-27)8-13(28)23-10-1-2-11-12(7-10)25-14(24-11)16(20,21)22/h1-2,7H,3-6,8-9H2,(H,23,28)(H,24,25)

> <PUBCHEM_IUPAC_INCHIKEY>
HTBLTNWSONQRCZ-UHFFFAOYSA-N

> <PUBCHEM_XLOGP3>
3

> <PUBCHEM_EXACT_MASS>
409.13373

> <PUBCHEM_MOLECULAR_FORMULA>
C16H17F6N5O

> <PUBCHEM_MOLECULAR_WEIGHT>
409.329499

> <PUBCHEM_OPENEYE_CAN_SMILES>
C1CN(CCN1CC(=O)NC2=CC3=C(C=C2)N=C(N3)C(F)(F)F)CC(F)(F)F

> <PUBCHEM_OPENEYE_ISO_SMILES>
C1CN(CCN1CC(=O)NC2=CC3=C(C=C2)N=C(N3)C(F)(F)F)CC(F)(F)F

> <PUBCHEM_CACTVS_TPSA>
64.3

> <PUBCHEM_MONOISOTOPIC_WEIGHT>
409.13373

> <PUBCHEM_TOTAL_CHARGE>
0

> <PUBCHEM_HEAVY_ATOM_COUNT>
28

> <PUBCHEM_ATOM_DEF_STEREO_COUNT>
0

> <PUBCHEM_ATOM_UDEF_STEREO_COUNT>
0

> <PUBCHEM_BOND_DEF_STEREO_COUNT>
0

> <PUBCHEM_BOND_UDEF_STEREO_COUNT>
0

> <PUBCHEM_ISOTOPIC_ATOM_COUNT>
0

> <PUBCHEM_COMPONENT_COUNT>
1

> <PUBCHEM_CACTVS_TAUTO_COUNT>
6

> <PUBCHEM_COORDINATE_TYPE>
1
5
255

> <PUBCHEM_BONDANNOTATIONS>
11  22  8
11  27  8
12  24  8
12  27  8
21  23  8
21  25  8
22  23  8
22  24  8
24  26  8
25  26  8

$$$$
52349692
  -OEChem-11301218032D

 37 38  0     0  0  0  0  0  0999 V2000
    2.8660   -2.2694    0.0000 N   0  3  0  0  0  0  0  0  0  0  0  0
    3.7320    2.2306    0.0000 N   0  0  0  0  0  0  0  0  0  0  0  0
    4.5411    2.8184    0.0000 N   0  0  0  0  0  0  0  0  0  0  0  0
    3.7320   -1.7694    0.0000 C   0  0  0  0  0  0  0  0  0  0  0  0
    2.0000   -2.7694    0.0000 C   0  0  0  0  0  0  0  0  0  0  0  0
    3.3660   -3.1354    0.0000 C   0  0  0  0  0  0  0  0  0  0  0  0
    3.7320   -0.7694    0.0000 C   0  0  0  0  0  0  0  0  0  0  0  0
    2.0000   -3.7694    0.0000 C   0  0  0  0  0  0  0  0  0  0  0  0
    4.3660   -3.1354    0.0000 C   0  0  0  0  0  0  0  0  0  0  0  0
    2.8660   -0.2694    0.0000 C   0  0  0  0  0  0  0  0  0  0  0  0
    4.5981   -0.2694    0.0000 C   0  0  0  0  0  0  0  0  0  0  0  0
    3.7320    1.2306    0.0000 C   0  0  0  0  0  0  0  0  0  0  0  0
    2.8660    0.7306    0.0000 C   0  0  0  0  0  0  0  0  0  0  0  0
    4.5981    0.7306    0.0000 C   0  0  0  0  0  0  0  0  0  0  0  0
    2.9230    2.8184    0.0000 C   0  0  0  0  0  0  0  0  0  0  0  0
    3.2320    3.7694    0.0000 C   0  0  0  0  0  0  0  0  0  0  0  0
    4.2320    3.7694    0.0000 C   0  0  0  0  0  0  0  0  0  0  0  0
    2.5560   -1.7325    0.0000 H   0  0  0  0  0  0  0  0  0  0  0  0
    3.9441   -2.3520    0.0000 H   0  0  0  0  0  0  0  0  0  0  0  0
    4.3426   -1.6618    0.0000 H   0  0  0  0  0  0  0  0  0  0  0  0
    1.7880   -2.1868    0.0000 H   0  0  0  0  0  0  0  0  0  0  0  0
    1.3894   -2.8771    0.0000 H   0  0  0  0  0  0  0  0  0  0  0  0
    2.7834   -3.3475    0.0000 H   0  0  0  0  0  0  0  0  0  0  0  0
    3.4737   -3.7460    0.0000 H   0  0  0  0  0  0  0  0  0  0  0  0
    4.3660   -3.7554    0.0000 H   0  0  0  0  0  0  0  0  0  0  0  0
    1.3800   -3.7694    0.0000 H   0  0  0  0  0  0  0  0  0  0  0  0
    2.0000   -4.3894    0.0000 H   0  0  0  0  0  0  0  0  0  0  0  0
    2.6200   -3.7694    0.0000 H   0  0  0  0  0  0  0  0  0  0  0  0
    4.9860   -3.1354    0.0000 H   0  0  0  0  0  0  0  0  0  0  0  0
    4.3660   -2.5154    0.0000 H   0  0  0  0  0  0  0  0  0  0  0  0
    2.3291   -0.5794    0.0000 H   0  0  0  0  0  0  0  0  0  0  0  0
    5.1350   -0.5794    0.0000 H   0  0  0  0  0  0  0  0  0  0  0  0
    2.3291    1.0406    0.0000 H   0  0  0  0  0  0  0  0  0  0  0  0
    5.1350    1.0406    0.0000 H   0  0  0  0  0  0  0  0  0  0  0  0
    2.3334    2.6268    0.0000 H   0  0  0  0  0  0  0  0  0  0  0  0
    2.8676    4.2710    0.0000 H   0  0  0  0  0  0  0  0  0  0  0  0
    4.5965    4.2710    0.0000 H   0  0  0  0  0  0  0  0  0  0  0  0
  1  4  1  0  0  0  0
  1  5  1  0  0  0  0
  1  6  1  0  0  0  0
  1 18  1  0  0  0  0
  2  3  1  0  0  0  0
  2 12  1  0  0  0  0
  2 15  1  0  0  0  0
  3 17  2  0  0  0  0
  4  7  1  0  0  0  0
  4 19  1  0  0  0  0
  4 20  1  0  0  0  0
  5  8  1  0  0  0  0
  5 21  1  0  0  0  0
  5 22  1  0  0  0  0
  6  9  1  0  0  0  0
  6 23  1  0  0  0  0
  6 24  1  0  0  0  0
  7 10  2  0  0  0  0
  7 11  1  0  0  0  0
  8 26  1  0  0  0  0
  8 27  1  0  0  0  0
  8 28  1  0  0  0  0
  9 25  1  0  0  0  0
  9 29  1  0  0  0  0
  9 30  1  0  0  0  0
 10 13  1  0  0  0  0
 10 31  1  0  0  0  0
 11 14  2  0  0  0  0
 11 32  1  0  0  0  0
 12 13  2  0  0  0  0
 12 14  1  0  0  0  0
 13 33  1  0  0  0  0
 14 34  1  0  0  0  0
 15 16  2  0  0  0  0
 15 35  1  0  0  0  0
 16 17  1  0  0  0  0
 16 36  1  0  0  0  0
 17 37  1  0  0  0  0
M  CHG  1   1   1
M  END
> <PUBCHEM_COMPOUND_CID>
52349692

> <PUBCHEM_COMPOUND_CANONICALIZED>
1

> <PUBCHEM_CACTVS_COMPLEXITY>
208

> <PUBCHEM_CACTVS_HBOND_ACCEPTOR>
1

> <PUBCHEM_CACTVS_HBOND_DONOR>
1

> <PUBCHEM_CACTVS_ROTATABLE_BOND>
5

> <PUBCHEM_CACTVS_SUBSKEYS>
AAADceBzAAAAAAAAAAAAAAAAAAAAAWAAAAAwAAAAAAAAAAABwAAAHAAYAAAADAjBGgQ+wJPIAACiAjRnRACSBCAxggAYmKA4ZJgIIOLA0dGEpAhgmADIyAcQgAAOCAAAAAAAAAAQAAAAAAAAAAAAAAAAAA==

> <PUBCHEM_IUPAC_OPENEYE_NAME>
diethyl-[(4-pyrazol-1-ylphenyl)methyl]ammonium

> <PUBCHEM_IUPAC_CAS_NAME>
diethyl-[[4-(1-pyrazolyl)phenyl]methyl]ammonium

> <PUBCHEM_IUPAC_NAME>
diethyl-[(4-pyrazol-1-ylphenyl)methyl]azanium

> <PUBCHEM_IUPAC_SYSTEMATIC_NAME>
diethyl-[(4-pyrazol-1-ylphenyl)methyl]azanium

> <PUBCHEM_IUPAC_TRADITIONAL_NAME>
diethyl-(4-pyrazol-1-ylbenzyl)ammonium

> <PUBCHEM_IUPAC_INCHI>
InChI=1S/C14H19N3/c1-3-16(4-2)12-13-6-8-14(9-7-13)17-11-5-10-15-17/h5-11H,3-4,12H2,1-2H3/p+1

> <PUBCHEM_IUPAC_INCHIKEY>
GRGJZWHXPZQGNE-UHFFFAOYSA-O

> <PUBCHEM_XLOGP3>
2.8

> <PUBCHEM_EXACT_MASS>
230.165723

> <PUBCHEM_MOLECULAR_FORMULA>
C14H20N3+

> <PUBCHEM_MOLECULAR_WEIGHT>
230.3287

> <PUBCHEM_OPENEYE_CAN_SMILES>
CC[NH+](CC)CC1=CC=C(C=C1)N2C=CC=N2

> <PUBCHEM_OPENEYE_ISO_SMILES>
CC[NH+](CC)CC1=CC=C(C=C1)N2C=CC=N2

> <PUBCHEM_CACTVS_TPSA>
22.3

> <PUBCHEM_MONOISOTOPIC_WEIGHT>
230.165723

> <PUBCHEM_TOTAL_CHARGE>
1

> <PUBCHEM_HEAVY_ATOM_COUNT>
17

> <PUBCHEM_ATOM_DEF_STEREO_COUNT>
0

> <PUBCHEM_ATOM_UDEF_STEREO_COUNT>
0

> <PUBCHEM_BOND_DEF_STEREO_COUNT>
0

> <PUBCHEM_BOND_UDEF_STEREO_COUNT>
0

> <PUBCHEM_ISOTOPIC_ATOM_COUNT>
0

> <PUBCHEM_COMPONENT_COUNT>
1

> <PUBCHEM_CACTVS_TAUTO_COUNT>
1

> <PUBCHEM_COORDINATE_TYPE>
1
5
255

> <PUBCHEM_BONDANNOTATIONS>
10  13  8
11  14  8
12  13  8
12  14  8
15  16  8
16  17  8
2  15  8
2  3  8
3  17  8
7  10  8
7  11  8

$$$$
