28753922
  -OEChem-05231305182D

 25 25  0     0  0  0  0  0  0999 V2000
    2.0000   -2.8100    0.0000 Cl  0  0  0  0  0  0  0  0  0  0  0  0
    3.7320   -3.8100    0.0000 Cl  0  0  0  0  0  0  0  0  0  0  0  0
    2.8660    0.6900    0.0000 O   0  0  0  0  0  0  0  0  0  0  0  0
    4.5981    0.6900    0.0000 N   0  0  0  0  0  0  0  0  0  0  0  0
    5.4641    3.1900    0.0000 N   0  3  0  0  0  0  0  0  0  0  0  0
    4.5981    1.6900    0.0000 C   0  0  0  0  0  0  0  0  0  0  0  0
    5.4641    2.1900    0.0000 C   0  0  0  0  0  0  0  0  0  0  0  0
    3.7320   -0.8100    0.0000 C   0  0  0  0  0  0  0  0  0  0  0  0
    3.7320    0.1900    0.0000 C   0  0  0  0  0  0  0  0  0  0  0  0
    2.8660   -1.3100    0.0000 C   0  0  0  0  0  0  0  0  0  0  0  0
    4.5981   -1.3100    0.0000 C   0  0  0  0  0  0  0  0  0  0  0  0
    2.8660   -2.3100    0.0000 C   0  0  0  0  0  0  0  0  0  0  0  0
    4.5981   -2.3100    0.0000 C   0  0  0  0  0  0  0  0  0  0  0  0
    3.7320   -2.8100    0.0000 C   0  0  0  0  0  0  0  0  0  0  0  0
    4.3860    2.2726    0.0000 H   0  0  0  0  0  0  0  0  0  0  0  0
    3.9875    1.5823    0.0000 H   0  0  0  0  0  0  0  0  0  0  0  0
    5.6762    1.6074    0.0000 H   0  0  0  0  0  0  0  0  0  0  0  0
    6.0747    2.2977    0.0000 H   0  0  0  0  0  0  0  0  0  0  0  0
    5.1350    0.3800    0.0000 H   0  0  0  0  0  0  0  0  0  0  0  0
    5.4641    3.8100    0.0000 H   0  0  0  0  0  0  0  0  0  0  0  0
    6.0841    3.1900    0.0000 H   0  0  0  0  0  0  0  0  0  0  0  0
    4.8441    3.1900    0.0000 H   0  0  0  0  0  0  0  0  0  0  0  0
    2.3291   -1.0000    0.0000 H   0  0  0  0  0  0  0  0  0  0  0  0
    5.1350   -1.0000    0.0000 H   0  0  0  0  0  0  0  0  0  0  0  0
    5.1350   -2.6200    0.0000 H   0  0  0  0  0  0  0  0  0  0  0  0
  1 12  1  0  0  0  0
  2 14  1  0  0  0  0
  3  9  2  0  0  0  0
  4  6  1  0  0  0  0
  4  9  1  0  0  0  0
  4 19  1  0  0  0  0
  5  7  1  0  0  0  0
  5 20  1  0  0  0  0
  5 21  1  0  0  0  0
  5 22  1  0  0  0  0
  6  7  1  0  0  0  0
  6 15  1  0  0  0  0
  6 16  1  0  0  0  0
  7 17  1  0  0  0  0
  7 18  1  0  0  0  0
  8  9  1  0  0  0  0
  8 10  2  0  0  0  0
  8 11  1  0  0  0  0
 10 12  1  0  0  0  0
 10 23  1  0  0  0  0
 11 13  2  0  0  0  0
 11 24  1  0  0  0  0
 12 14  2  0  0  0  0
 13 14  1  0  0  0  0
 13 25  1  0  0  0  0
M  CHG  1   5   1
M  END
> <PUBCHEM_COMPOUND_CID>
28753922

> <PUBCHEM_COMPOUND_CANONICALIZED>
1

> <PUBCHEM_CACTVS_COMPLEXITY>
201

> <PUBCHEM_CACTVS_HBOND_ACCEPTOR>
1

> <PUBCHEM_CACTVS_HBOND_DONOR>
2

> <PUBCHEM_CACTVS_ROTATABLE_BOND>
3

> <PUBCHEM_CACTVS_SUBSKEYS>
AAADccBzIAAGAAAAAAAAAAAAAAAAAAAAAAAwAAAAAAAAAAABAAAAHgIQAAAADALBmCQwAILAAACIAiFSEACCAAAkBQAIisEIBsgIYDKBlxGUIQhglgCIiYcYiACOBAAAIAAAAAQIAABAAAAACAAAAAAAAA==

> <PUBCHEM_IUPAC_OPENEYE_NAME>
2-[(3,4-dichlorobenzoyl)amino]ethylammonium

> <PUBCHEM_IUPAC_CAS_NAME>
2-[[(3,4-dichlorophenyl)-oxomethyl]amino]ethylammonium

> <PUBCHEM_IUPAC_NAME>
2-[(3,4-dichlorobenzoyl)amino]ethylazanium

> <PUBCHEM_IUPAC_SYSTEMATIC_NAME>
2-[(3,4-dichlorophenyl)carbonylamino]ethylazanium

> <PUBCHEM_IUPAC_TRADITIONAL_NAME>
2-[(3,4-dichlorobenzoyl)amino]ethylammonium

> <PUBCHEM_IUPAC_INCHI>
InChI=1S/C9H10Cl2N2O/c10-7-2-1-6(5-8(7)11)9(14)13-4-3-12/h1-2,5H,3-4,12H2,(H,13,14)/p+1

> <PUBCHEM_IUPAC_INCHIKEY>
BVSYYNFOBNEAHX-UHFFFAOYSA-O

> <PUBCHEM_XLOGP3>
2.3

> <PUBCHEM_EXACT_MASS>
233.024843

> <PUBCHEM_MOLECULAR_FORMULA>
C9H11Cl2N2O+

> <PUBCHEM_MOLECULAR_WEIGHT>
234.10244

> <PUBCHEM_OPENEYE_CAN_SMILES>
C1=CC(=C(C=C1C(=O)NCC[NH3+])Cl)Cl

> <PUBCHEM_OPENEYE_ISO_SMILES>
C1=CC(=C(C=C1C(=O)NCC[NH3+])Cl)Cl

> <PUBCHEM_CACTVS_TPSA>
56.7

> <PUBCHEM_MONOISOTOPIC_WEIGHT>
233.024843

> <PUBCHEM_TOTAL_CHARGE>
1

> <PUBCHEM_HEAVY_ATOM_COUNT>
14

> <PUBCHEM_ATOM_DEF_STEREO_COUNT>
0

> <PUBCHEM_ATOM_UDEF_STEREO_COUNT>
0

> <PUBCHEM_BOND_DEF_STEREO_COUNT>
0

> <PUBCHEM_BOND_UDEF_STEREO_COUNT>
0

> <PUBCHEM_ISOTOPIC_ATOM_COUNT>
0

> <PUBCHEM_COMPONENT_COUNT>
1

> <PUBCHEM_CACTVS_TAUTO_COUNT>
2

> <PUBCHEM_COORDINATE_TYPE>
1
5
255

> <PUBCHEM_BONDANNOTATIONS>
10  12  8
11  13  8
12  14  8
13  14  8
8  10  8
8  11  8

$$$$
28754354
  -OEChem-05231305182D

 28 28  0     0  0  0  0  0  0999 V2000
    5.1350    1.5185    0.0000 O   0  0  0  0  0  0  0  0  0  0  0  0
    3.4030    1.5185    0.0000 N   0  0  0  0  0  0  0  0  0  0  0  0
    2.5369   -2.9815    0.0000 N   0  3  0  0  0  0  0  0  0  0  0  0
    3.4030   -1.4815    0.0000 C   0  0  0  0  0  0  0  0  0  0  0  0
    3.4030   -2.4815    0.0000 C   0  0  0  0  0  0  0  0  0  0  0  0
    3.4030    0.5185    0.0000 C   0  0  0  0  0  0  0  0  0  0  0  0
    2.5369   -0.9815    0.0000 C   0  0  0  0  0  0  0  0  0  0  0  0
    4.2690   -0.9815    0.0000 C   0  0  0  0  0  0  0  0  0  0  0  0
    2.5369    0.0185    0.0000 C   0  0  0  0  0  0  0  0  0  0  0  0
    4.2690    0.0185    0.0000 C   0  0  0  0  0  0  0  0  0  0  0  0
    4.2690    3.0185    0.0000 C   0  0  0  0  0  0  0  0  0  0  0  0
    4.2690    2.0185    0.0000 C   0  0  0  0  0  0  0  0  0  0  0  0
    5.1350    3.5185    0.0000 C   0  0  0  0  0  0  0  0  0  0  0  0
    3.6150   -3.0641    0.0000 H   0  0  0  0  0  0  0  0  0  0  0  0
    4.0135   -2.3739    0.0000 H   0  0  0  0  0  0  0  0  0  0  0  0
    2.0000   -1.2915    0.0000 H   0  0  0  0  0  0  0  0  0  0  0  0
    4.8059   -1.2915    0.0000 H   0  0  0  0  0  0  0  0  0  0  0  0
    2.0000    0.3285    0.0000 H   0  0  0  0  0  0  0  0  0  0  0  0
    4.8059    0.3285    0.0000 H   0  0  0  0  0  0  0  0  0  0  0  0
    2.8660    1.8285    0.0000 H   0  0  0  0  0  0  0  0  0  0  0  0
    2.0000   -3.2915    0.0000 H   0  0  0  0  0  0  0  0  0  0  0  0
    2.8469   -3.5185    0.0000 H   0  0  0  0  0  0  0  0  0  0  0  0
    2.2269   -2.4446    0.0000 H   0  0  0  0  0  0  0  0  0  0  0  0
    4.0569    3.6011    0.0000 H   0  0  0  0  0  0  0  0  0  0  0  0
    3.6584    2.9108    0.0000 H   0  0  0  0  0  0  0  0  0  0  0  0
    5.4450    2.9815    0.0000 H   0  0  0  0  0  0  0  0  0  0  0  0
    5.6720    3.8285    0.0000 H   0  0  0  0  0  0  0  0  0  0  0  0
    4.8250    4.0554    0.0000 H   0  0  0  0  0  0  0  0  0  0  0  0
  1 12  2  0  0  0  0
  2  6  1  0  0  0  0
  2 12  1  0  0  0  0
  2 20  1  0  0  0  0
  3  5  1  0  0  0  0
  3 21  1  0  0  0  0
  3 22  1  0  0  0  0
  3 23  1  0  0  0  0
  4  5  1  0  0  0  0
  4  7  2  0  0  0  0
  4  8  1  0  0  0  0
  5 14  1  0  0  0  0
  5 15  1  0  0  0  0
  6  9  2  0  0  0  0
  6 10  1  0  0  0  0
  7  9  1  0  0  0  0
  7 16  1  0  0  0  0
  8 10  2  0  0  0  0
  8 17  1  0  0  0  0
  9 18  1  0  0  0  0
 10 19  1  0  0  0  0
 11 12  1  0  0  0  0
 11 13  1  0  0  0  0
 11 24  1  0  0  0  0
 11 25  1  0  0  0  0
 13 26  1  0  0  0  0
 13 27  1  0  0  0  0
 13 28  1  0  0  0  0
M  CHG  1   3   1
M  END
> <PUBCHEM_COMPOUND_CID>
28754354

> <PUBCHEM_COMPOUND_CANONICALIZED>
1

> <PUBCHEM_CACTVS_COMPLEXITY>
162

> <PUBCHEM_CACTVS_HBOND_ACCEPTOR>
1

> <PUBCHEM_CACTVS_HBOND_DONOR>
2

> <PUBCHEM_CACTVS_ROTATABLE_BOND>
3

> <PUBCHEM_CACTVS_SUBSKEYS>
AAADccBzIAAAAAAAAAAAAAAAAAAAAAAAAAAwAAAAAAAAAAABAAAAHgAQAAAADAjBmAQywILAAACIAiVSUACCAAAhAgAIiIEAZIgIICLAkZGEIAhglADIyAcQgAAOCAAAAAAAAAAQAAAAAAAAAAAAAAAAAA==

> <PUBCHEM_IUPAC_OPENEYE_NAME>
[4-(propanoylamino)phenyl]methylammonium

> <PUBCHEM_IUPAC_CAS_NAME>
[4-(1-oxopropylamino)phenyl]methylammonium

> <PUBCHEM_IUPAC_NAME>
[4-(propanoylamino)phenyl]methylazanium

> <PUBCHEM_IUPAC_SYSTEMATIC_NAME>
[4-(propanoylamino)phenyl]methylazanium

> <PUBCHEM_IUPAC_TRADITIONAL_NAME>
(4-propionamidobenzyl)ammonium

> <PUBCHEM_IUPAC_INCHI>
InChI=1S/C10H14N2O/c1-2-10(13)12-9-5-3-8(7-11)4-6-9/h3-6H,2,7,11H2,1H3,(H,12,13)/p+1

> <PUBCHEM_IUPAC_INCHIKEY>
HNPOHVIHCOBHPK-UHFFFAOYSA-O

> <PUBCHEM_XLOGP3>
0.5

> <PUBCHEM_EXACT_MASS>
179.118438

> <PUBCHEM_MOLECULAR_FORMULA>
C10H15N2O+

> <PUBCHEM_MOLECULAR_WEIGHT>
179.2389

> <PUBCHEM_OPENEYE_CAN_SMILES>
CCC(=O)NC1=CC=C(C=C1)C[NH3+]

> <PUBCHEM_OPENEYE_ISO_SMILES>
CCC(=O)NC1=CC=C(C=C1)C[NH3+]

> <PUBCHEM_CACTVS_TPSA>
56.7

> <PUBCHEM_MONOISOTOPIC_WEIGHT>
179.118438

> <PUBCHEM_TOTAL_CHARGE>
1

> <PUBCHEM_HEAVY_ATOM_COUNT>
13

> <PUBCHEM_ATOM_DEF_STEREO_COUNT>
0

> <PUBCHEM_ATOM_UDEF_STEREO_COUNT>
0

> <PUBCHEM_BOND_DEF_STEREO_COUNT>
0

> <PUBCHEM_BOND_UDEF_STEREO_COUNT>
0

> <PUBCHEM_ISOTOPIC_ATOM_COUNT>
0

> <PUBCHEM_COMPONENT_COUNT>
1

> <PUBCHEM_CACTVS_TAUTO_COUNT>
3

> <PUBCHEM_COORDINATE_TYPE>
1
5
255

> <PUBCHEM_BONDANNOTATIONS>
4  7  8
4  8  8
6  10  8
6  9  8
7  9  8
8  10  8

$$$$
28767300
  -OEChem-05231305182D

 34 36  0     1  0  0  0  0  0999 V2000
    9.3412    2.4346    0.0000 P   0  0  0  0  0  0  0  0  0  0  0  0
    6.8066    0.6702    0.0000 O   0  0  0  0  0  0  0  0  0  0  0  0
    4.2686    1.1746    0.0000 O   0  0  0  0  0  0  0  0  0  0  0  0
    5.5504    2.9324    0.0000 O   0  0  0  0  0  0  0  0  0  0  0  0
    8.5312    1.8482    0.0000 O   0  0  0  0  0  0  0  0  0  0  0  0
    3.7320   -3.3924    0.0000 O   0  0  0  0  0  0  0  0  0  0  0  0
    2.0000   -0.3925    0.0000 O   0  5  0  0  0  0  0  0  0  0  0  0
   10.1512    3.0210    0.0000 O   0  5  0  0  0  0  0  0  0  0  0  0
    9.9276    1.6246    0.0000 O   0  5  0  0  0  0  0  0  0  0  0  0
    8.7548    3.2446    0.0000 O   0  0  0  0  0  0  0  0  0  0  0  0
    5.5443   -0.5877    0.0000 N   0  0  0  0  0  0  0  0  0  0  0  0
    3.7320   -0.3925    0.0000 N   0  0  0  0  0  0  0  0  0  0  0  0
    5.5443   -2.1972    0.0000 N   0  0  0  0  0  0  0  0  0  0  0  0
    2.8660   -1.8924    0.0000 N   0  0  0  0  0  0  0  0  0  0  0  0
    5.2686    1.1728    0.0000 C   0  0  1  0  0  0  0  0  0  0  0  0
    5.8550    0.3628    0.0000 C   0  0  1  0  0  0  0  0  0  0  0  0
    5.8578    1.9808    0.0000 C   0  0  1  0  0  0  0  0  0  0  0  0
    6.8083    1.6702    0.0000 C   0  0  1  0  0  0  0  0  0  0  0  0
    7.6183    2.2566    0.0000 C   0  0  0  0  0  0  0  0  0  0  0  0
    4.5981   -0.8925    0.0000 C   0  0  0  0  0  0  0  0  0  0  0  0
    6.1279   -1.3924    0.0000 C   0  0  0  0  0  0  0  0  0  0  0  0
    4.5981   -1.8924    0.0000 C   0  0  0  0  0  0  0  0  0  0  0  0
    3.7320   -2.3925    0.0000 C   0  0  0  0  0  0  0  0  0  0  0  0
    2.8660   -0.8925    0.0000 C   0  0  0  0  0  0  0  0  0  0  0  0
    4.9861    0.6209    0.0000 H   0  0  0  0  0  0  0  0  0  0  0  0
    6.2926   -0.0764    0.0000 H   0  0  0  0  0  0  0  0  0  0  0  0
    5.2456    2.0789    0.0000 H   0  0  0  0  0  0  0  0  0  0  0  0
    7.3602    1.3877    0.0000 H   0  0  0  0  0  0  0  0  0  0  0  0
    7.9659    2.7700    0.0000 H   0  0  0  0  0  0  0  0  0  0  0  0
    7.1731    2.6880    0.0000 H   0  0  0  0  0  0  0  0  0  0  0  0
    3.9595    1.7120    0.0000 H   0  0  0  0  0  0  0  0  0  0  0  0
    5.9660    3.3924    0.0000 H   0  0  0  0  0  0  0  0  0  0  0  0
    6.7479   -1.3924    0.0000 H   0  0  0  0  0  0  0  0  0  0  0  0
    3.7320    0.2275    0.0000 H   0  0  0  0  0  0  0  0  0  0  0  0
  1  5  1  0  0  0  0
  1  8  1  0  0  0  0
  1  9  1  0  0  0  0
  1 10  2  0  0  0  0
  2 16  1  0  0  0  0
  2 18  1  0  0  0  0
 15  3  1  6  0  0  0
  3 31  1  0  0  0  0
 17  4  1  6  0  0  0
  4 32  1  0  0  0  0
  5 19  1  0  0  0  0
  6 23  2  0  0  0  0
  7 24  1  0  0  0  0
 16 11  1  1  0  0  0
 11 20  1  0  0  0  0
 11 21  1  0  0  0  0
 12 20  1  0  0  0  0
 12 24  1  0  0  0  0
 12 34  1  0  0  0  0
 13 21  2  0  0  0  0
 13 22  1  0  0  0  0
 14 23  1  0  0  0  0
 14 24  2  0  0  0  0
 15 16  1  0  0  0  0
 15 17  1  0  0  0  0
 15 25  1  0  0  0  0
 16 26  1  0  0  0  0
 17 18  1  0  0  0  0
 17 27  1  0  0  0  0
 18 19  1  1  0  0  0
 18 28  1  0  0  0  0
 19 29  1  0  0  0  0
 19 30  1  0  0  0  0
 20 22  2  0  0  0  0
 21 33  1  0  0  0  0
 22 23  1  0  0  0  0
M  CHG  3   7  -1   8  -1   9  -1
M  END
> <PUBCHEM_COMPOUND_CID>
28767300

> <PUBCHEM_COMPOUND_CANONICALIZED>
1

> <PUBCHEM_CACTVS_COMPLEXITY>
585

> <PUBCHEM_CACTVS_HBOND_ACCEPTOR>
10

> <PUBCHEM_CACTVS_HBOND_DONOR>
3

> <PUBCHEM_CACTVS_ROTATABLE_BOND>
3

> <PUBCHEM_CACTVS_SUBSKEYS>
AAADccBzvAIAAAAAAAAAAAAAAAAAAWJAAAAgAAAAAAAAAEABgAAAHgAQCCAACBzhlgYFsBfMFxCoQQdxdICAgC0XEKABUAGoVEGDWApAyCAeQIAPAALTAGDwMAIAAAAAAAAAAAAAAAAAAAAAAAAAAAAAAA==

> <PUBCHEM_IUPAC_OPENEYE_NAME>
[(2R,3S,4R,5R)-3,4-dihydroxy-5-(2-oxido-6-oxo-3H-purin-9-yl)tetrahydrofuran-2-yl]methyl phosphate

> <PUBCHEM_IUPAC_CAS_NAME>
[(2R,3S,4R,5R)-3,4-dihydroxy-5-(2-oxido-6-oxo-3H-purin-9-yl)-2-oxolanyl]methyl phosphate

> <PUBCHEM_IUPAC_NAME>
[(2R,3S,4R,5R)-3,4-dihydroxy-5-(2-oxido-6-oxo-3H-purin-9-yl)oxolan-2-yl]methyl phosphate

> <PUBCHEM_IUPAC_SYSTEMATIC_NAME>
[(2R,3S,4R,5R)-5-(2-oxidanidyl-6-oxidanylidene-3H-purin-9-yl)-3,4-bis(oxidanyl)oxolan-2-yl]methyl phosphate

> <PUBCHEM_IUPAC_TRADITIONAL_NAME>
[(2R,3S,4R,5R)-3,4-dihydroxy-5-(6-keto-2-oxido-3H-purin-9-yl)tetrahydrofuran-2-yl]methyl phosphate

> <PUBCHEM_IUPAC_INCHI>
InChI=1S/C10H13N4O9P/c15-5-3(1-22-24(19,20)21)23-9(6(5)16)14-2-11-4-7(14)12-10(18)13-8(4)17/h2-3,5-6,9,15-16H,1H2,(H2,19,20,21)(H2,12,13,17,18)/p-3/t3-,5-,6-,9-/m1/s1

> <PUBCHEM_IUPAC_INCHIKEY>
DCTLYFZHFGENCW-UUOKFMHZSA-K

> <PUBCHEM_XLOGP3>
-3.2

> <PUBCHEM_EXACT_MASS>
361.01854

> <PUBCHEM_MOLECULAR_FORMULA>
C10H10N4O9P-3

> <PUBCHEM_MOLECULAR_WEIGHT>
361.181562

> <PUBCHEM_OPENEYE_CAN_SMILES>
C1=NC2=C(N1C3C(C(C(O3)COP(=O)([O-])[O-])O)O)NC(=NC2=O)[O-]

> <PUBCHEM_OPENEYE_ISO_SMILES>
C1=NC2=C(N1[C@H]3[C@@H]([C@@H]([C@H](O3)COP(=O)([O-])[O-])O)O)NC(=NC2=O)[O-]

> <PUBCHEM_CACTVS_TPSA>
204

> <PUBCHEM_MONOISOTOPIC_WEIGHT>
361.01854

> <PUBCHEM_TOTAL_CHARGE>
-3

> <PUBCHEM_HEAVY_ATOM_COUNT>
24

> <PUBCHEM_ATOM_DEF_STEREO_COUNT>
4

> <PUBCHEM_ATOM_UDEF_STEREO_COUNT>
0

> <PUBCHEM_BOND_DEF_STEREO_COUNT>
0

> <PUBCHEM_BOND_UDEF_STEREO_COUNT>
0

> <PUBCHEM_ISOTOPIC_ATOM_COUNT>
0

> <PUBCHEM_COMPONENT_COUNT>
1

> <PUBCHEM_CACTVS_TAUTO_COUNT>
3

> <PUBCHEM_COORDINATE_TYPE>
1
5
255

> <PUBCHEM_BONDANNOTATIONS>
16  11  5
11  20  8
11  21  8
12  20  8
12  24  8
13  21  8
13  22  8
14  23  8
14  24  8
18  19  5
20  22  8
22  23  8
15  3  6
17  4  6

$$$$
28772327
  -OEChem-05231305182D

 29 29  0     1  0  0  0  0  0999 V2000
    2.8660    0.7315    0.0000 N   0  0  3  0  0  0  0  0  0  0  0  0
    4.5981    2.7315    0.0000 N   0  3  0  0  0  0  0  0  0  0  0  0
    3.7320    1.2315    0.0000 C   0  0  0  0  0  0  0  0  0  0  0  0
    3.7320    2.2315    0.0000 C   0  0  0  0  0  0  0  0  0  0  0  0
    2.8660   -0.2685    0.0000 C   0  0  0  0  0  0  0  0  0  0  0  0
    2.0000    1.2315    0.0000 C   0  0  0  0  0  0  0  0  0  0  0  0
    3.7320   -0.7685    0.0000 C   0  0  0  0  0  0  0  0  0  0  0  0
    2.0000   -0.7685    0.0000 C   0  0  0  0  0  0  0  0  0  0  0  0
    2.8660   -2.2685    0.0000 C   0  0  0  0  0  0  0  0  0  0  0  0
    3.7320   -1.7685    0.0000 C   0  0  0  0  0  0  0  0  0  0  0  0
    2.0000   -1.7685    0.0000 C   0  0  0  0  0  0  0  0  0  0  0  0
    2.8660   -3.2685    0.0000 C   0  0  0  0  0  0  0  0  0  0  0  0
    3.9441    0.6489    0.0000 H   0  0  0  0  0  0  0  0  0  0  0  0
    4.3426    1.3392    0.0000 H   0  0  0  0  0  0  0  0  0  0  0  0
    3.5200    2.8141    0.0000 H   0  0  0  0  0  0  0  0  0  0  0  0
    3.1215    2.1239    0.0000 H   0  0  0  0  0  0  0  0  0  0  0  0
    2.3100    1.7685    0.0000 H   0  0  0  0  0  0  0  0  0  0  0  0
    1.4631    1.5415    0.0000 H   0  0  0  0  0  0  0  0  0  0  0  0
    1.6900    0.6946    0.0000 H   0  0  0  0  0  0  0  0  0  0  0  0
    4.2690   -0.4585    0.0000 H   0  0  0  0  0  0  0  0  0  0  0  0
    1.4631   -0.4585    0.0000 H   0  0  0  0  0  0  0  0  0  0  0  0
    5.1350    3.0415    0.0000 H   0  0  0  0  0  0  0  0  0  0  0  0
    4.2881    3.2685    0.0000 H   0  0  0  0  0  0  0  0  0  0  0  0
    4.9081    2.1946    0.0000 H   0  0  0  0  0  0  0  0  0  0  0  0
    4.2690   -2.0785    0.0000 H   0  0  0  0  0  0  0  0  0  0  0  0
    1.4631   -2.0785    0.0000 H   0  0  0  0  0  0  0  0  0  0  0  0
    2.2460   -3.2685    0.0000 H   0  0  0  0  0  0  0  0  0  0  0  0
    2.8660   -3.8885    0.0000 H   0  0  0  0  0  0  0  0  0  0  0  0
    3.4860   -3.2685    0.0000 H   0  0  0  0  0  0  0  0  0  0  0  0
  1  3  1  0  0  0  0
  1  5  1  0  0  0  0
  1  6  1  0  0  0  0
  2  4  1  0  0  0  0
  2 22  1  0  0  0  0
  2 23  1  0  0  0  0
  2 24  1  0  0  0  0
  3  4  1  0  0  0  0
  3 13  1  0  0  0  0
  3 14  1  0  0  0  0
  4 15  1  0  0  0  0
  4 16  1  0  0  0  0
  5  7  2  0  0  0  0
  5  8  1  0  0  0  0
  6 17  1  0  0  0  0
  6 18  1  0  0  0  0
  6 19  1  0  0  0  0
  7 10  1  0  0  0  0
  7 20  1  0  0  0  0
  8 11  2  0  0  0  0
  8 21  1  0  0  0  0
  9 10  2  0  0  0  0
  9 11  1  0  0  0  0
  9 12  1  0  0  0  0
 10 25  1  0  0  0  0
 11 26  1  0  0  0  0
 12 27  1  0  0  0  0
 12 28  1  0  0  0  0
 12 29  1  0  0  0  0
M  CHG  1   2   1
M  END
> <PUBCHEM_COMPOUND_CID>
28772327

> <PUBCHEM_COMPOUND_CANONICALIZED>
1

> <PUBCHEM_CACTVS_COMPLEXITY>
117

> <PUBCHEM_CACTVS_HBOND_ACCEPTOR>
1

> <PUBCHEM_CACTVS_HBOND_DONOR>
1

> <PUBCHEM_CACTVS_ROTATABLE_BOND>
3

> <PUBCHEM_CACTVS_SUBSKEYS>
AAADceBzAAAAAAAAAAAAAAAAAAAAAAAAAAAwAAAAAAAAAAABAAAAHAAQAAAADAjBGAQywINAAACAAiRCQACCAAAhAgAIiIAIZIgIYCLAkZGUIAhgkADIyAcQgAAOCAAAAAAAAAAQAAAAAAAAAAAAAAAAAA==

> <PUBCHEM_IUPAC_OPENEYE_NAME>
2-(N,4-dimethylanilino)ethylammonium

> <PUBCHEM_IUPAC_CAS_NAME>
2-(N,4-dimethylanilino)ethylammonium

> <PUBCHEM_IUPAC_NAME>
2-(N,4-dimethylanilino)ethylazanium

> <PUBCHEM_IUPAC_SYSTEMATIC_NAME>
2-[methyl-(4-methylphenyl)amino]ethylazanium

> <PUBCHEM_IUPAC_TRADITIONAL_NAME>
2-(N,4-dimethylanilino)ethylammonium

> <PUBCHEM_IUPAC_INCHI>
InChI=1S/C10H16N2/c1-9-3-5-10(6-4-9)12(2)8-7-11/h3-6H,7-8,11H2,1-2H3/p+1

> <PUBCHEM_IUPAC_INCHIKEY>
SGTBJPAUFXJASD-UHFFFAOYSA-O

> <PUBCHEM_XLOGP3>
1.9

> <PUBCHEM_EXACT_MASS>
165.139174

> <PUBCHEM_MOLECULAR_FORMULA>
C10H17N2+

> <PUBCHEM_MOLECULAR_WEIGHT>
165.25538

> <PUBCHEM_OPENEYE_CAN_SMILES>
CC1=CC=C(C=C1)N(C)CC[NH3+]

> <PUBCHEM_OPENEYE_ISO_SMILES>
CC1=CC=C(C=C1)N(C)CC[NH3+]

> <PUBCHEM_CACTVS_TPSA>
30.9

> <PUBCHEM_MONOISOTOPIC_WEIGHT>
165.139174

> <PUBCHEM_TOTAL_CHARGE>
1

> <PUBCHEM_HEAVY_ATOM_COUNT>
12

> <PUBCHEM_ATOM_DEF_STEREO_COUNT>
0

> <PUBCHEM_ATOM_UDEF_STEREO_COUNT>
0

> <PUBCHEM_BOND_DEF_STEREO_COUNT>
0

> <PUBCHEM_BOND_UDEF_STEREO_COUNT>
0

> <PUBCHEM_ISOTOPIC_ATOM_COUNT>
0

> <PUBCHEM_COMPONENT_COUNT>
1

> <PUBCHEM_CACTVS_TAUTO_COUNT>
1

> <PUBCHEM_COORDINATE_TYPE>
1
5
255

> <PUBCHEM_BONDANNOTATIONS>
5  7  8
5  8  8
7  10  8
8  11  8
9  10  8
9  11  8

$$$$
28774466
  -OEChem-05231305182D

 26 27  0     0  0  0  0  0  0999 V2000
    6.0010   -0.7489    0.0000 N   0  0  0  0  0  0  0  0  0  0  0  0
    2.5369   -0.7489    0.0000 N   0  3  0  0  0  0  0  0  0  0  0  0
    4.2690   -0.7489    0.0000 C   0  0  0  0  0  0  0  0  0  0  0  0
    5.1350   -0.2489    0.0000 C   0  0  0  0  0  0  0  0  0  0  0  0
    3.4030   -0.2489    0.0000 C   0  0  0  0  0  0  0  0  0  0  0  0
    6.8671    0.7511    0.0000 C   0  0  0  0  0  0  0  0  0  0  0  0
    6.8671   -0.2489    0.0000 C   0  0  0  0  0  0  0  0  0  0  0  0
    5.1350    0.7511    0.0000 C   0  0  0  0  0  0  0  0  0  0  0  0
    6.0010    1.2511    0.0000 C   0  0  0  0  0  0  0  0  0  0  0  0
    7.7610    1.2858    0.0000 C   0  0  0  0  0  0  0  0  0  0  0  0
    7.7610   -0.7835    0.0000 C   0  0  0  0  0  0  0  0  0  0  0  0
    8.6671    0.7720    0.0000 C   0  0  0  0  0  0  0  0  0  0  0  0
    8.6671   -0.2697    0.0000 C   0  0  0  0  0  0  0  0  0  0  0  0
    3.8705   -1.2238    0.0000 H   0  0  0  0  0  0  0  0  0  0  0  0
    4.6675   -1.2238    0.0000 H   0  0  0  0  0  0  0  0  0  0  0  0
    3.8015    0.2261    0.0000 H   0  0  0  0  0  0  0  0  0  0  0  0
    3.0044    0.2261    0.0000 H   0  0  0  0  0  0  0  0  0  0  0  0
    4.5981    1.0611    0.0000 H   0  0  0  0  0  0  0  0  0  0  0  0
    6.0010    1.8711    0.0000 H   0  0  0  0  0  0  0  0  0  0  0  0
    2.0000   -1.0589    0.0000 H   0  0  0  0  0  0  0  0  0  0  0  0
    2.2269   -0.2119    0.0000 H   0  0  0  0  0  0  0  0  0  0  0  0
    2.8469   -1.2858    0.0000 H   0  0  0  0  0  0  0  0  0  0  0  0
    7.7538    1.9058    0.0000 H   0  0  0  0  0  0  0  0  0  0  0  0
    7.7538   -1.4035    0.0000 H   0  0  0  0  0  0  0  0  0  0  0  0
    9.2028    1.0840    0.0000 H   0  0  0  0  0  0  0  0  0  0  0  0
    9.2028   -0.5817    0.0000 H   0  0  0  0  0  0  0  0  0  0  0  0
  1  4  2  0  0  0  0
  1  7  1  0  0  0  0
  2  5  1  0  0  0  0
  2 20  1  0  0  0  0
  2 21  1  0  0  0  0
  2 22  1  0  0  0  0
  3  4  1  0  0  0  0
  3  5  1  0  0  0  0
  3 14  1  0  0  0  0
  3 15  1  0  0  0  0
  4  8  1  0  0  0  0
  5 16  1  0  0  0  0
  5 17  1  0  0  0  0
  6  7  1  0  0  0  0
  6  9  1  0  0  0  0
  6 10  2  0  0  0  0
  7 11  2  0  0  0  0
  8  9  2  0  0  0  0
  8 18  1  0  0  0  0
  9 19  1  0  0  0  0
 10 12  1  0  0  0  0
 10 23  1  0  0  0  0
 11 13  1  0  0  0  0
 11 24  1  0  0  0  0
 12 13  2  0  0  0  0
 12 25  1  0  0  0  0
 13 26  1  0  0  0  0
M  CHG  1   2   1
M  END
> <PUBCHEM_COMPOUND_CID>
28774466

> <PUBCHEM_COMPOUND_CANONICALIZED>
1

> <PUBCHEM_CACTVS_COMPLEXITY>
158

> <PUBCHEM_CACTVS_HBOND_ACCEPTOR>
1

> <PUBCHEM_CACTVS_HBOND_DONOR>
1

> <PUBCHEM_CACTVS_ROTATABLE_BOND>
2

> <PUBCHEM_CACTVS_SUBSKEYS>
AAADccBzAAAAAAAAAAAAAAAAAAAAAAAAAAA8QAAAAAAAAACx8AAAHAAQAAAADAjBHgQwwPJIEACgAyRiRACCgCAhAiAImKAwZJgIIOLA0ZGEIAhgkADIyAcQgMAOAAAAAAACAAAAAAAAAAQAAAAAAAAAAA==

> <PUBCHEM_IUPAC_OPENEYE_NAME>
2-(2-quinolyl)ethylammonium

> <PUBCHEM_IUPAC_CAS_NAME>
2-(2-quinolinyl)ethylammonium

> <PUBCHEM_IUPAC_NAME>
2-quinolin-2-ylethylazanium

> <PUBCHEM_IUPAC_SYSTEMATIC_NAME>
2-quinolin-2-ylethylazanium

> <PUBCHEM_IUPAC_TRADITIONAL_NAME>
2-(2-quinolyl)ethylammonium

> <PUBCHEM_IUPAC_INCHI>
InChI=1S/C11H12N2/c12-8-7-10-6-5-9-3-1-2-4-11(9)13-10/h1-6H,7-8,12H2/p+1

> <PUBCHEM_IUPAC_INCHIKEY>
ANBAULJARIYBIL-UHFFFAOYSA-O

> <PUBCHEM_XLOGP3>
1.5

> <PUBCHEM_EXACT_MASS>
173.107873

> <PUBCHEM_MOLECULAR_FORMULA>
C11H13N2+

> <PUBCHEM_MOLECULAR_WEIGHT>
173.23432

> <PUBCHEM_OPENEYE_CAN_SMILES>
C1=CC=C2C(=C1)C=CC(=N2)CC[NH3+]

> <PUBCHEM_OPENEYE_ISO_SMILES>
C1=CC=C2C(=C1)C=CC(=N2)CC[NH3+]

> <PUBCHEM_CACTVS_TPSA>
40.5

> <PUBCHEM_MONOISOTOPIC_WEIGHT>
173.107873

> <PUBCHEM_TOTAL_CHARGE>
1

> <PUBCHEM_HEAVY_ATOM_COUNT>
13

> <PUBCHEM_ATOM_DEF_STEREO_COUNT>
0

> <PUBCHEM_ATOM_UDEF_STEREO_COUNT>
0

> <PUBCHEM_BOND_DEF_STEREO_COUNT>
0

> <PUBCHEM_BOND_UDEF_STEREO_COUNT>
0

> <PUBCHEM_ISOTOPIC_ATOM_COUNT>
0

> <PUBCHEM_COMPONENT_COUNT>
1

> <PUBCHEM_CACTVS_TAUTO_COUNT>
2

> <PUBCHEM_COORDINATE_TYPE>
1
5
255

> <PUBCHEM_BONDANNOTATIONS>
1  4  8
1  7  8
10  12  8
11  13  8
12  13  8
4  8  8
6  10  8
6  7  8
6  9  8
7  11  8
8  9  8

$$$$
28774750
  -OEChem-05231305182D

 29 30  0     0  0  0  0  0  0999 V2000
    3.7320   -0.4989    0.0000 N   0  3  0  0  0  0  0  0  0  0  0  0
    6.3301   -0.9989    0.0000 N   0  0  0  0  0  0  0  0  0  0  0  0
    4.5981   -0.9989    0.0000 C   0  0  0  0  0  0  0  0  0  0  0  0
    2.8660    0.0011    0.0000 C   0  0  0  0  0  0  0  0  0  0  0  0
    5.4641   -0.4989    0.0000 C   0  0  0  0  0  0  0  0  0  0  0  0
    7.1962    0.5011    0.0000 C   0  0  0  0  0  0  0  0  0  0  0  0
    7.1962   -0.4989    0.0000 C   0  0  0  0  0  0  0  0  0  0  0  0
    5.4641    0.5011    0.0000 C   0  0  0  0  0  0  0  0  0  0  0  0
    2.0000   -0.4989    0.0000 C   0  0  0  0  0  0  0  0  0  0  0  0
    6.3301    1.0011    0.0000 C   0  0  0  0  0  0  0  0  0  0  0  0
    8.0901    1.0358    0.0000 C   0  0  0  0  0  0  0  0  0  0  0  0
    8.0901   -1.0335    0.0000 C   0  0  0  0  0  0  0  0  0  0  0  0
    8.9962    0.5220    0.0000 C   0  0  0  0  0  0  0  0  0  0  0  0
    8.9962   -0.5197    0.0000 C   0  0  0  0  0  0  0  0  0  0  0  0
    3.4220   -1.0358    0.0000 H   0  0  0  0  0  0  0  0  0  0  0  0
    4.0420    0.0381    0.0000 H   0  0  0  0  0  0  0  0  0  0  0  0
    4.1996   -1.4738    0.0000 H   0  0  0  0  0  0  0  0  0  0  0  0
    4.9966   -1.4738    0.0000 H   0  0  0  0  0  0  0  0  0  0  0  0
    3.2646    0.4761    0.0000 H   0  0  0  0  0  0  0  0  0  0  0  0
    2.4675    0.4761    0.0000 H   0  0  0  0  0  0  0  0  0  0  0  0
    4.9272    0.8111    0.0000 H   0  0  0  0  0  0  0  0  0  0  0  0
    6.3301    1.6211    0.0000 H   0  0  0  0  0  0  0  0  0  0  0  0
    1.6900    0.0381    0.0000 H   0  0  0  0  0  0  0  0  0  0  0  0
    1.4631   -0.8089    0.0000 H   0  0  0  0  0  0  0  0  0  0  0  0
    2.3100   -1.0358    0.0000 H   0  0  0  0  0  0  0  0  0  0  0  0
    8.0829    1.6558    0.0000 H   0  0  0  0  0  0  0  0  0  0  0  0
    8.0829   -1.6535    0.0000 H   0  0  0  0  0  0  0  0  0  0  0  0
    9.5319    0.8340    0.0000 H   0  0  0  0  0  0  0  0  0  0  0  0
    9.5319   -0.8317    0.0000 H   0  0  0  0  0  0  0  0  0  0  0  0
  1  3  1  0  0  0  0
  1  4  1  0  0  0  0
  1 15  1  0  0  0  0
  1 16  1  0  0  0  0
  2  5  2  0  0  0  0
  2  7  1  0  0  0  0
  3  5  1  0  0  0  0
  3 17  1  0  0  0  0
  3 18  1  0  0  0  0
  4  9  1  0  0  0  0
  4 19  1  0  0  0  0
  4 20  1  0  0  0  0
  5  8  1  0  0  0  0
  6  7  1  0  0  0  0
  6 10  1  0  0  0  0
  6 11  2  0  0  0  0
  7 12  2  0  0  0  0
  8 10  2  0  0  0  0
  8 21  1  0  0  0  0
  9 23  1  0  0  0  0
  9 24  1  0  0  0  0
  9 25  1  0  0  0  0
 10 22  1  0  0  0  0
 11 13  1  0  0  0  0
 11 26  1  0  0  0  0
 12 14  1  0  0  0  0
 12 27  1  0  0  0  0
 13 14  2  0  0  0  0
 13 28  1  0  0  0  0
 14 29  1  0  0  0  0
M  CHG  1   1   1
M  END
> <PUBCHEM_COMPOUND_CID>
28774750

> <PUBCHEM_COMPOUND_CANONICALIZED>
1

> <PUBCHEM_CACTVS_COMPLEXITY>
170

> <PUBCHEM_CACTVS_HBOND_ACCEPTOR>
1

> <PUBCHEM_CACTVS_HBOND_DONOR>
1

> <PUBCHEM_CACTVS_ROTATABLE_BOND>
3

> <PUBCHEM_CACTVS_SUBSKEYS>
AAADccBzAAAAAAAAAAAAAAAAAAAAAAAAAAA8QAAAAAAAAACx8AAAHAAQAAAADAjBHgQywPLIEACgAyRiRACCgCAhAiAImKA4ZJgIYOLAkZGUIAhgkADIyAcQgIAOAAAAAAACAAAAAAAAAAQAAAAAAAAAAA==

> <PUBCHEM_IUPAC_OPENEYE_NAME>
ethyl(2-quinolylmethyl)ammonium

> <PUBCHEM_IUPAC_CAS_NAME>
ethyl(2-quinolinylmethyl)ammonium

> <PUBCHEM_IUPAC_NAME>
ethyl(quinolin-2-ylmethyl)azanium

> <PUBCHEM_IUPAC_SYSTEMATIC_NAME>
ethyl(quinolin-2-ylmethyl)azanium

> <PUBCHEM_IUPAC_TRADITIONAL_NAME>
ethyl(2-quinolylmethyl)ammonium

> <PUBCHEM_IUPAC_INCHI>
InChI=1S/C12H14N2/c1-2-13-9-11-8-7-10-5-3-4-6-12(10)14-11/h3-8,13H,2,9H2,1H3/p+1

> <PUBCHEM_IUPAC_INCHIKEY>
TUVXQSIEJCHGFW-UHFFFAOYSA-O

> <PUBCHEM_XLOGP3>
2

> <PUBCHEM_EXACT_MASS>
187.123523

> <PUBCHEM_MOLECULAR_FORMULA>
C12H15N2+

> <PUBCHEM_MOLECULAR_WEIGHT>
187.2609

> <PUBCHEM_OPENEYE_CAN_SMILES>
CC[NH2+]CC1=NC2=CC=CC=C2C=C1

> <PUBCHEM_OPENEYE_ISO_SMILES>
CC[NH2+]CC1=NC2=CC=CC=C2C=C1

> <PUBCHEM_CACTVS_TPSA>
29.5

> <PUBCHEM_MONOISOTOPIC_WEIGHT>
187.123523

> <PUBCHEM_TOTAL_CHARGE>
1

> <PUBCHEM_HEAVY_ATOM_COUNT>
14

> <PUBCHEM_ATOM_DEF_STEREO_COUNT>
0

> <PUBCHEM_ATOM_UDEF_STEREO_COUNT>
0

> <PUBCHEM_BOND_DEF_STEREO_COUNT>
0

> <PUBCHEM_BOND_UDEF_STEREO_COUNT>
0

> <PUBCHEM_ISOTOPIC_ATOM_COUNT>
0

> <PUBCHEM_COMPONENT_COUNT>
1

> <PUBCHEM_CACTVS_TAUTO_COUNT>
1

> <PUBCHEM_COORDINATE_TYPE>
1
5
255

> <PUBCHEM_BONDANNOTATIONS>
11  13  8
12  14  8
13  14  8
2  5  8
2  7  8
5  8  8
6  10  8
6  11  8
6  7  8
7  12  8
8  10  8

$$$$
