28584498
  -OEChem-12041211362D

 38 39  0     0  0  0  0  0  0999 V2000
    6.3301    3.4400    0.0000 O   0  0  0  0  0  0  0  0  0  0  0  0
    5.4641   -1.0600    0.0000 N   0  3  0  0  0  0  0  0  0  0  0  0
    8.0622    3.4400    0.0000 N   0  0  0  0  0  0  0  0  0  0  0  0
    5.4641   -2.0600    0.0000 C   0  0  0  0  0  0  0  0  0  0  0  0
    5.4641   -0.0600    0.0000 C   0  0  0  0  0  0  0  0  0  0  0  0
    4.5981   -2.5600    0.0000 C   0  0  0  0  0  0  0  0  0  0  0  0
    6.3301    0.4400    0.0000 C   0  0  0  0  0  0  0  0  0  0  0  0
    6.3301    1.4400    0.0000 C   0  0  0  0  0  0  0  0  0  0  0  0
    4.5981   -3.5600    0.0000 C   0  0  0  0  0  0  0  0  0  0  0  0
    3.7320   -2.0600    0.0000 C   0  0  0  0  0  0  0  0  0  0  0  0
    7.1962   -0.0600    0.0000 C   0  0  0  0  0  0  0  0  0  0  0  0
    7.1962    1.9400    0.0000 C   0  0  0  0  0  0  0  0  0  0  0  0
    2.8660   -3.5600    0.0000 C   0  0  0  0  0  0  0  0  0  0  0  0
    3.7320   -4.0600    0.0000 C   0  0  0  0  0  0  0  0  0  0  0  0
    2.8660   -2.5600    0.0000 C   0  0  0  0  0  0  0  0  0  0  0  0
    8.0622    0.4400    0.0000 C   0  0  0  0  0  0  0  0  0  0  0  0
    8.0622    1.4400    0.0000 C   0  0  0  0  0  0  0  0  0  0  0  0
    2.0000   -4.0600    0.0000 C   0  0  0  0  0  0  0  0  0  0  0  0
    7.1962    2.9400    0.0000 C   0  0  0  0  0  0  0  0  0  0  0  0
    4.8441   -1.0600    0.0000 H   0  0  0  0  0  0  0  0  0  0  0  0
    6.0841   -1.0600    0.0000 H   0  0  0  0  0  0  0  0  0  0  0  0
    5.6762   -2.6426    0.0000 H   0  0  0  0  0  0  0  0  0  0  0  0
    6.0747   -1.9523    0.0000 H   0  0  0  0  0  0  0  0  0  0  0  0
    5.2520    0.5226    0.0000 H   0  0  0  0  0  0  0  0  0  0  0  0
    4.8535   -0.1677    0.0000 H   0  0  0  0  0  0  0  0  0  0  0  0
    5.7932    1.7500    0.0000 H   0  0  0  0  0  0  0  0  0  0  0  0
    5.1350   -3.8700    0.0000 H   0  0  0  0  0  0  0  0  0  0  0  0
    3.7320   -1.4400    0.0000 H   0  0  0  0  0  0  0  0  0  0  0  0
    7.1962   -0.6800    0.0000 H   0  0  0  0  0  0  0  0  0  0  0  0
    3.7320   -4.6800    0.0000 H   0  0  0  0  0  0  0  0  0  0  0  0
    2.3291   -2.2500    0.0000 H   0  0  0  0  0  0  0  0  0  0  0  0
    8.5991    0.1300    0.0000 H   0  0  0  0  0  0  0  0  0  0  0  0
    8.5991    1.7500    0.0000 H   0  0  0  0  0  0  0  0  0  0  0  0
    1.6900   -3.5231    0.0000 H   0  0  0  0  0  0  0  0  0  0  0  0
    1.4631   -4.3700    0.0000 H   0  0  0  0  0  0  0  0  0  0  0  0
    2.3100   -4.5969    0.0000 H   0  0  0  0  0  0  0  0  0  0  0  0
    8.0622    4.0600    0.0000 H   0  0  0  0  0  0  0  0  0  0  0  0
    8.5991    3.1300    0.0000 H   0  0  0  0  0  0  0  0  0  0  0  0
  1 19  2  0  0  0  0
  2  4  1  0  0  0  0
  2  5  1  0  0  0  0
  2 20  1  0  0  0  0
  2 21  1  0  0  0  0
  3 19  1  0  0  0  0
  3 37  1  0  0  0  0
  3 38  1  0  0  0  0
  4  6  1  0  0  0  0
  4 22  1  0  0  0  0
  4 23  1  0  0  0  0
  5  7  1  0  0  0  0
  5 24  1  0  0  0  0
  5 25  1  0  0  0  0
  6  9  2  0  0  0  0
  6 10  1  0  0  0  0
  7  8  2  0  0  0  0
  7 11  1  0  0  0  0
  8 12  1  0  0  0  0
  8 26  1  0  0  0  0
  9 14  1  0  0  0  0
  9 27  1  0  0  0  0
 10 15  2  0  0  0  0
 10 28  1  0  0  0  0
 11 16  2  0  0  0  0
 11 29  1  0  0  0  0
 12 17  2  0  0  0  0
 12 19  1  0  0  0  0
 13 14  2  0  0  0  0
 13 15  1  0  0  0  0
 13 18  1  0  0  0  0
 14 30  1  0  0  0  0
 15 31  1  0  0  0  0
 16 17  1  0  0  0  0
 16 32  1  0  0  0  0
 17 33  1  0  0  0  0
 18 34  1  0  0  0  0
 18 35  1  0  0  0  0
 18 36  1  0  0  0  0
M  CHG  1   2   1
M  END
> <PUBCHEM_COMPOUND_CID>
28584498

> <PUBCHEM_COMPOUND_CANONICALIZED>
1

> <PUBCHEM_CACTVS_COMPLEXITY>
285

> <PUBCHEM_CACTVS_HBOND_ACCEPTOR>
1

> <PUBCHEM_CACTVS_HBOND_DONOR>
2

> <PUBCHEM_CACTVS_ROTATABLE_BOND>
5

> <PUBCHEM_CACTVS_SUBSKEYS>
AAADceB7IAAAAAAAAAAAAAAAAAAAAAAAAAAwYAAAAAAAAAABQAAAHgAQAAAADADBmAQyAILAAACIAiFSEACCAAAkAAAIiIEIBMgIIDKAlRGEIQhggACIiYcYiUCOQAACAAAAAACAAAQAAAAAAAAAAAAAAA==

> <PUBCHEM_IUPAC_OPENEYE_NAME>
(3-carbamoylphenyl)methyl-(p-tolylmethyl)ammonium

> <PUBCHEM_IUPAC_CAS_NAME>
(3-carbamoylphenyl)methyl-[(4-methylphenyl)methyl]ammonium

> <PUBCHEM_IUPAC_NAME>
(3-carbamoylphenyl)methyl-[(4-methylphenyl)methyl]azanium

> <PUBCHEM_IUPAC_SYSTEMATIC_NAME>
(3-aminocarbonylphenyl)methyl-[(4-methylphenyl)methyl]azanium

> <PUBCHEM_IUPAC_TRADITIONAL_NAME>
(3-carbamoylbenzyl)-(4-methylbenzyl)ammonium

> <PUBCHEM_IUPAC_INCHI>
InChI=1S/C16H18N2O/c1-12-5-7-13(8-6-12)10-18-11-14-3-2-4-15(9-14)16(17)19/h2-9,18H,10-11H2,1H3,(H2,17,19)/p+1

> <PUBCHEM_IUPAC_INCHIKEY>
SKHCAQUEMRUIOI-UHFFFAOYSA-O

> <PUBCHEM_XLOGP3>
2

> <PUBCHEM_EXACT_MASS>
255.149738

> <PUBCHEM_MOLECULAR_FORMULA>
C16H19N2O+

> <PUBCHEM_MOLECULAR_WEIGHT>
255.33486

> <PUBCHEM_OPENEYE_CAN_SMILES>
CC1=CC=C(C=C1)C[NH2+]CC2=CC=CC(=C2)C(=O)N

> <PUBCHEM_OPENEYE_ISO_SMILES>
CC1=CC=C(C=C1)C[NH2+]CC2=CC=CC(=C2)C(=O)N

> <PUBCHEM_CACTVS_TPSA>
59.7

> <PUBCHEM_MONOISOTOPIC_WEIGHT>
255.149738

> <PUBCHEM_TOTAL_CHARGE>
1

> <PUBCHEM_HEAVY_ATOM_COUNT>
19

> <PUBCHEM_ATOM_DEF_STEREO_COUNT>
0

> <PUBCHEM_ATOM_UDEF_STEREO_COUNT>
0

> <PUBCHEM_BOND_DEF_STEREO_COUNT>
0

> <PUBCHEM_BOND_UDEF_STEREO_COUNT>
0

> <PUBCHEM_ISOTOPIC_ATOM_COUNT>
0

> <PUBCHEM_COMPONENT_COUNT>
1

> <PUBCHEM_CACTVS_TAUTO_COUNT>
2

> <PUBCHEM_COORDINATE_TYPE>
1
5
255

> <PUBCHEM_BONDANNOTATIONS>
10  15  8
11  16  8
12  17  8
13  14  8
13  15  8
16  17  8
6  10  8
6  9  8
7  11  8
7  8  8
8  12  8
9  14  8

$$$$
28588047
  -OEChem-12041211362D

 51 53  0     0  0  0  0  0  0999 V2000
    7.0000   -1.9510    0.0000 N   0  3  0  0  0  0  0  0  0  0  0  0
    7.0000    0.0490    0.0000 N   0  0  0  0  0  0  0  0  0  0  0  0
    6.1340   -1.4510    0.0000 C   0  0  0  0  0  0  0  0  0  0  0  0
    7.8660   -1.4510    0.0000 C   0  0  0  0  0  0  0  0  0  0  0  0
    7.8660   -0.4510    0.0000 C   0  0  0  0  0  0  0  0  0  0  0  0
    6.1340   -0.4510    0.0000 C   0  0  0  0  0  0  0  0  0  0  0  0
    6.5000   -2.8170    0.0000 C   0  0  0  0  0  0  0  0  0  0  0  0
    7.0000    1.0490    0.0000 C   0  0  0  0  0  0  0  0  0  0  0  0
    5.5000   -2.8170    0.0000 C   0  0  0  0  0  0  0  0  0  0  0  0
    7.8660    1.5490    0.0000 C   0  0  0  0  0  0  0  0  0  0  0  0
    5.0000   -3.6830    0.0000 C   0  0  0  0  0  0  0  0  0  0  0  0
    7.8660    2.5490    0.0000 C   0  0  0  0  0  0  0  0  0  0  0  0
    4.0000   -3.6830    0.0000 C   0  0  0  0  0  0  0  0  0  0  0  0
    8.7320    3.0490    0.0000 C   0  0  0  0  0  0  0  0  0  0  0  0
    3.5000   -2.8170    0.0000 C   0  0  0  0  0  0  0  0  0  0  0  0
    3.5000   -4.5490    0.0000 C   0  0  0  0  0  0  0  0  0  0  0  0
    9.5981    2.5490    0.0000 C   0  0  0  0  0  0  0  0  0  0  0  0
    8.7320    4.0490    0.0000 C   0  0  0  0  0  0  0  0  0  0  0  0
    2.5000   -2.8170    0.0000 C   0  0  0  0  0  0  0  0  0  0  0  0
    2.5000   -4.5490    0.0000 C   0  0  0  0  0  0  0  0  0  0  0  0
    2.0000   -3.6830    0.0000 C   0  0  0  0  0  0  0  0  0  0  0  0
   10.4641    3.0490    0.0000 C   0  0  0  0  0  0  0  0  0  0  0  0
    9.5981    4.5490    0.0000 C   0  0  0  0  0  0  0  0  0  0  0  0
   10.4641    4.0490    0.0000 C   0  0  0  0  0  0  0  0  0  0  0  0
    7.3100   -2.4879    0.0000 H   0  0  0  0  0  0  0  0  0  0  0  0
    8.0781   -2.0336    0.0000 H   0  0  0  0  0  0  0  0  0  0  0  0
    8.4766   -1.3433    0.0000 H   0  0  0  0  0  0  0  0  0  0  0  0
    5.5234   -1.3433    0.0000 H   0  0  0  0  0  0  0  0  0  0  0  0
    5.9219   -2.0336    0.0000 H   0  0  0  0  0  0  0  0  0  0  0  0
    5.9219    0.1316    0.0000 H   0  0  0  0  0  0  0  0  0  0  0  0
    8.4766   -0.5586    0.0000 H   0  0  0  0  0  0  0  0  0  0  0  0
    8.0781    0.1316    0.0000 H   0  0  0  0  0  0  0  0  0  0  0  0
    5.5234   -0.5586    0.0000 H   0  0  0  0  0  0  0  0  0  0  0  0
    6.3923   -3.4276    0.0000 H   0  0  0  0  0  0  0  0  0  0  0  0
    7.0826   -3.0290    0.0000 H   0  0  0  0  0  0  0  0  0  0  0  0
    6.7880    1.6316    0.0000 H   0  0  0  0  0  0  0  0  0  0  0  0
    6.3894    0.9414    0.0000 H   0  0  0  0  0  0  0  0  0  0  0  0
    5.1900   -2.2800    0.0000 H   0  0  0  0  0  0  0  0  0  0  0  0
    8.4030    1.2390    0.0000 H   0  0  0  0  0  0  0  0  0  0  0  0
    5.3100   -4.2200    0.0000 H   0  0  0  0  0  0  0  0  0  0  0  0
    7.3291    2.8590    0.0000 H   0  0  0  0  0  0  0  0  0  0  0  0
    3.8100   -2.2800    0.0000 H   0  0  0  0  0  0  0  0  0  0  0  0
    3.8100   -5.0860    0.0000 H   0  0  0  0  0  0  0  0  0  0  0  0
    9.5981    1.9290    0.0000 H   0  0  0  0  0  0  0  0  0  0  0  0
    8.1951    4.3590    0.0000 H   0  0  0  0  0  0  0  0  0  0  0  0
    2.1900   -2.2800    0.0000 H   0  0  0  0  0  0  0  0  0  0  0  0
    2.1900   -5.0860    0.0000 H   0  0  0  0  0  0  0  0  0  0  0  0
    1.3800   -3.6830    0.0000 H   0  0  0  0  0  0  0  0  0  0  0  0
   11.0010    2.7390    0.0000 H   0  0  0  0  0  0  0  0  0  0  0  0
    9.5981    5.1690    0.0000 H   0  0  0  0  0  0  0  0  0  0  0  0
   11.0010    4.3590    0.0000 H   0  0  0  0  0  0  0  0  0  0  0  0
  1  3  1  0  0  0  0
  1  4  1  0  0  0  0
  1  7  1  0  0  0  0
  1 25  1  0  0  0  0
  2  5  1  0  0  0  0
  2  6  1  0  0  0  0
  2  8  1  0  0  0  0
  3  6  1  0  0  0  0
  3 28  1  0  0  0  0
  3 29  1  0  0  0  0
  4  5  1  0  0  0  0
  4 26  1  0  0  0  0
  4 27  1  0  0  0  0
  5 31  1  0  0  0  0
  5 32  1  0  0  0  0
  6 30  1  0  0  0  0
  6 33  1  0  0  0  0
  7  9  1  0  0  0  0
  7 34  1  0  0  0  0
  7 35  1  0  0  0  0
  8 10  1  0  0  0  0
  8 36  1  0  0  0  0
  8 37  1  0  0  0  0
  9 11  2  0  0  0  0
  9 38  1  0  0  0  0
 10 12  2  0  0  0  0
 10 39  1  0  0  0  0
 11 13  1  0  0  0  0
 11 40  1  0  0  0  0
 12 14  1  0  0  0  0
 12 41  1  0  0  0  0
 13 15  2  0  0  0  0
 13 16  1  0  0  0  0
 14 17  2  0  0  0  0
 14 18  1  0  0  0  0
 15 19  1  0  0  0  0
 15 42  1  0  0  0  0
 16 20  2  0  0  0  0
 16 43  1  0  0  0  0
 17 22  1  0  0  0  0
 17 44  1  0  0  0  0
 18 23  2  0  0  0  0
 18 45  1  0  0  0  0
 19 21  2  0  0  0  0
 19 46  1  0  0  0  0
 20 21  1  0  0  0  0
 20 47  1  0  0  0  0
 21 48  1  0  0  0  0
 22 24  2  0  0  0  0
 22 49  1  0  0  0  0
 23 24  1  0  0  0  0
 23 50  1  0  0  0  0
 24 51  1  0  0  0  0
M  CHG  1   1   1
M  END
> <PUBCHEM_COMPOUND_CID>
28588047

> <PUBCHEM_COMPOUND_CANONICALIZED>
1

> <PUBCHEM_CACTVS_COMPLEXITY>
381

> <PUBCHEM_CACTVS_HBOND_ACCEPTOR>
1

> <PUBCHEM_CACTVS_HBOND_DONOR>
1

> <PUBCHEM_CACTVS_ROTATABLE_BOND>
6

> <PUBCHEM_CACTVS_SUBSKEYS>
AAADceB7AAAAAAAAAAAAAAAAAAAAAAAAAAA8YIAAAAAAAAABQAAAHAAQAAAADADBGAQwAIPAAACAAiBCAACCAAAgAAAIiIAIAIgIYCKAERCQIAAgkACIiAcAgAAOAAAAAAAAAAAAAAAAAAAAAAAAAAAAAA==

> <PUBCHEM_IUPAC_OPENEYE_NAME>
1,4-bis[(E)-cinnamyl]piperazin-1-ium

> <PUBCHEM_IUPAC_CAS_NAME>
1,4-bis[(E)-3-phenylprop-2-enyl]piperazin-1-ium

> <PUBCHEM_IUPAC_NAME>
1,4-bis[(E)-3-phenylprop-2-enyl]piperazin-1-ium

> <PUBCHEM_IUPAC_SYSTEMATIC_NAME>
1,4-bis[(E)-3-phenylprop-2-enyl]piperazin-1-ium

> <PUBCHEM_IUPAC_TRADITIONAL_NAME>
1,4-bis[(E)-cinnamyl]piperazin-1-ium

> <PUBCHEM_IUPAC_INCHI>
InChI=1S/C22H26N2/c1-3-9-21(10-4-1)13-7-15-23-17-19-24(20-18-23)16-8-14-22-11-5-2-6-12-22/h1-14H,15-20H2/p+1/b13-7+,14-8+

> <PUBCHEM_IUPAC_INCHIKEY>
LPEUKGZZZUTWAH-FNCQTZNRSA-O

> <PUBCHEM_XLOGP3>
4.7

> <PUBCHEM_EXACT_MASS>
319.217424

> <PUBCHEM_MOLECULAR_FORMULA>
C22H27N2+

> <PUBCHEM_MOLECULAR_WEIGHT>
319.46318

> <PUBCHEM_OPENEYE_CAN_SMILES>
C1CN(CC[NH+]1CC=CC2=CC=CC=C2)CC=CC3=CC=CC=C3

> <PUBCHEM_OPENEYE_ISO_SMILES>
C1CN(CC[NH+]1C/C=C/C2=CC=CC=C2)C/C=C/C3=CC=CC=C3

> <PUBCHEM_CACTVS_TPSA>
7.7

> <PUBCHEM_MONOISOTOPIC_WEIGHT>
319.217424

> <PUBCHEM_TOTAL_CHARGE>
1

> <PUBCHEM_HEAVY_ATOM_COUNT>
24

> <PUBCHEM_ATOM_DEF_STEREO_COUNT>
0

> <PUBCHEM_ATOM_UDEF_STEREO_COUNT>
0

> <PUBCHEM_BOND_DEF_STEREO_COUNT>
2

> <PUBCHEM_BOND_UDEF_STEREO_COUNT>
0

> <PUBCHEM_ISOTOPIC_ATOM_COUNT>
0

> <PUBCHEM_COMPONENT_COUNT>
1

> <PUBCHEM_CACTVS_TAUTO_COUNT>
1

> <PUBCHEM_COORDINATE_TYPE>
1
5
255

> <PUBCHEM_BONDANNOTATIONS>
13  15  8
13  16  8
14  17  8
14  18  8
15  19  8
16  20  8
17  22  8
18  23  8
19  21  8
20  21  8
22  24  8
23  24  8

$$$$
28599414
  -OEChem-12041211372D

 33 33  0     1  0  0  0  0  0999 V2000
    5.4641    0.9400    0.0000 N   0  3  0  0  0  0  0  0  0  0  0  0
    3.7320    1.9400    0.0000 N   0  3  0  0  0  0  0  0  0  0  0  0
    3.7320    0.9400    0.0000 C   0  0  2  0  0  0  0  0  0  0  0  0
    4.5981    0.4400    0.0000 C   0  0  0  0  0  0  0  0  0  0  0  0
    2.8660    0.4400    0.0000 C   0  0  0  0  0  0  0  0  0  0  0  0
    6.3301    1.4400    0.0000 C   0  0  0  0  0  0  0  0  0  0  0  0
    5.9641    0.0740    0.0000 C   0  0  0  0  0  0  0  0  0  0  0  0
    2.8660   -0.5600    0.0000 C   0  0  0  0  0  0  0  0  0  0  0  0
    2.0000   -1.0600    0.0000 C   0  0  0  0  0  0  0  0  0  0  0  0
    3.7320   -1.0600    0.0000 C   0  0  0  0  0  0  0  0  0  0  0  0
    2.0000   -2.0600    0.0000 C   0  0  0  0  0  0  0  0  0  0  0  0
    3.7320   -2.0600    0.0000 C   0  0  0  0  0  0  0  0  0  0  0  0
    2.8660   -2.5600    0.0000 C   0  0  0  0  0  0  0  0  0  0  0  0
    4.2690    1.2500    0.0000 H   0  0  0  0  0  0  0  0  0  0  0  0
    4.1996   -0.0349    0.0000 H   0  0  0  0  0  0  0  0  0  0  0  0
    4.9966   -0.0349    0.0000 H   0  0  0  0  0  0  0  0  0  0  0  0
    5.1541    1.4769    0.0000 H   0  0  0  0  0  0  0  0  0  0  0  0
    2.6540    1.0226    0.0000 H   0  0  0  0  0  0  0  0  0  0  0  0
    2.2554    0.3323    0.0000 H   0  0  0  0  0  0  0  0  0  0  0  0
    3.7320    2.5600    0.0000 H   0  0  0  0  0  0  0  0  0  0  0  0
    4.3520    1.9400    0.0000 H   0  0  0  0  0  0  0  0  0  0  0  0
    3.1120    1.9400    0.0000 H   0  0  0  0  0  0  0  0  0  0  0  0
    6.6401    0.9031    0.0000 H   0  0  0  0  0  0  0  0  0  0  0  0
    5.4272   -0.2360    0.0000 H   0  0  0  0  0  0  0  0  0  0  0  0
    6.2741   -0.4630    0.0000 H   0  0  0  0  0  0  0  0  0  0  0  0
    6.5010    0.3840    0.0000 H   0  0  0  0  0  0  0  0  0  0  0  0
    6.8671    1.7500    0.0000 H   0  0  0  0  0  0  0  0  0  0  0  0
    6.0201    1.9769    0.0000 H   0  0  0  0  0  0  0  0  0  0  0  0
    1.4631   -0.7500    0.0000 H   0  0  0  0  0  0  0  0  0  0  0  0
    4.2690   -0.7500    0.0000 H   0  0  0  0  0  0  0  0  0  0  0  0
    1.4631   -2.3700    0.0000 H   0  0  0  0  0  0  0  0  0  0  0  0
    4.2690   -2.3700    0.0000 H   0  0  0  0  0  0  0  0  0  0  0  0
    2.8660   -3.1800    0.0000 H   0  0  0  0  0  0  0  0  0  0  0  0
  1  4  1  0  0  0  0
  1  6  1  0  0  0  0
  1  7  1  0  0  0  0
  1 17  1  0  0  0  0
  3  2  1  6  0  0  0
  2 20  1  0  0  0  0
  2 21  1  0  0  0  0
  2 22  1  0  0  0  0
  3  4  1  0  0  0  0
  3  5  1  0  0  0  0
  3 14  1  0  0  0  0
  4 15  1  0  0  0  0
  4 16  1  0  0  0  0
  5  8  1  0  0  0  0
  5 18  1  0  0  0  0
  5 19  1  0  0  0  0
  6 23  1  0  0  0  0
  6 27  1  0  0  0  0
  6 28  1  0  0  0  0
  7 24  1  0  0  0  0
  7 25  1  0  0  0  0
  7 26  1  0  0  0  0
  8  9  2  0  0  0  0
  8 10  1  0  0  0  0
  9 11  1  0  0  0  0
  9 29  1  0  0  0  0
 10 12  2  0  0  0  0
 10 30  1  0  0  0  0
 11 13  2  0  0  0  0
 11 31  1  0  0  0  0
 12 13  1  0  0  0  0
 12 32  1  0  0  0  0
 13 33  1  0  0  0  0
M  CHG  2   1   1   2   1
M  END
> <PUBCHEM_COMPOUND_CID>
28599414

> <PUBCHEM_COMPOUND_CANONICALIZED>
1

> <PUBCHEM_CACTVS_COMPLEXITY>
128

> <PUBCHEM_CACTVS_HBOND_ACCEPTOR>
0

> <PUBCHEM_CACTVS_HBOND_DONOR>
2

> <PUBCHEM_CACTVS_ROTATABLE_BOND>
4

> <PUBCHEM_CACTVS_SUBSKEYS>
AAADceBzAAAAAAAAAAAAAAAAAAAAAAAAAAAwAAAAAAAAAAABAAAAHAAQAAAADCjBGAQyAIPAAACAAiBCAAACAAAgAAAIiIAIAIgIYCKAkRGUIAAgkAAIiAcQgIAOAAAAAAAAAAAAAAAAAAAAAAAAAAAAAA==

> <PUBCHEM_IUPAC_OPENEYE_NAME>
[(2S)-2-azaniumyl-3-phenyl-propyl]-dimethyl-ammonium

> <PUBCHEM_IUPAC_CAS_NAME>
[(2S)-2-ammonio-3-phenylpropyl]-dimethylammonium

> <PUBCHEM_IUPAC_NAME>
[(2S)-2-azaniumyl-3-phenylpropyl]-dimethylazanium

> <PUBCHEM_IUPAC_SYSTEMATIC_NAME>
[(2S)-2-azaniumyl-3-phenyl-propyl]-dimethyl-azanium

> <PUBCHEM_IUPAC_TRADITIONAL_NAME>
[(2S)-2-ammonio-3-phenyl-propyl]-dimethyl-ammonium

> <PUBCHEM_IUPAC_INCHI>
InChI=1S/C11H18N2/c1-13(2)9-11(12)8-10-6-4-3-5-7-10/h3-7,11H,8-9,12H2,1-2H3/p+2/t11-/m0/s1

> <PUBCHEM_IUPAC_INCHIKEY>
HKHSRJNAQHRMGT-NSHDSACASA-P

> <PUBCHEM_XLOGP3>
1.4

> <PUBCHEM_EXACT_MASS>
180.162649

> <PUBCHEM_MOLECULAR_FORMULA>
C11H20N2+2

> <PUBCHEM_MOLECULAR_WEIGHT>
180.2899

> <PUBCHEM_OPENEYE_CAN_SMILES>
C[NH+](C)CC(CC1=CC=CC=C1)[NH3+]

> <PUBCHEM_OPENEYE_ISO_SMILES>
C[NH+](C)C[C@H](CC1=CC=CC=C1)[NH3+]

> <PUBCHEM_CACTVS_TPSA>
32.1

> <PUBCHEM_MONOISOTOPIC_WEIGHT>
180.162649

> <PUBCHEM_TOTAL_CHARGE>
2

> <PUBCHEM_HEAVY_ATOM_COUNT>
13

> <PUBCHEM_ATOM_DEF_STEREO_COUNT>
1

> <PUBCHEM_ATOM_UDEF_STEREO_COUNT>
0

> <PUBCHEM_BOND_DEF_STEREO_COUNT>
0

> <PUBCHEM_BOND_UDEF_STEREO_COUNT>
0

> <PUBCHEM_ISOTOPIC_ATOM_COUNT>
0

> <PUBCHEM_COMPONENT_COUNT>
1

> <PUBCHEM_CACTVS_TAUTO_COUNT>
1

> <PUBCHEM_COORDINATE_TYPE>
1
5
255

> <PUBCHEM_BONDANNOTATIONS>
10  12  8
11  13  8
12  13  8
3  2  6
8  10  8
8  9  8
9  11  8

$$$$
28599415
  -OEChem-12041211372D

 33 33  0     1  0  0  0  0  0999 V2000
    5.4641    0.9400    0.0000 N   0  3  0  0  0  0  0  0  0  0  0  0
    3.7320    1.9400    0.0000 N   0  3  0  0  0  0  0  0  0  0  0  0
    3.7320    0.9400    0.0000 C   0  0  1  0  0  0  0  0  0  0  0  0
    4.5981    0.4400    0.0000 C   0  0  0  0  0  0  0  0  0  0  0  0
    2.8660    0.4400    0.0000 C   0  0  0  0  0  0  0  0  0  0  0  0
    6.3301    1.4400    0.0000 C   0  0  0  0  0  0  0  0  0  0  0  0
    5.9641    0.0740    0.0000 C   0  0  0  0  0  0  0  0  0  0  0  0
    2.8660   -0.5600    0.0000 C   0  0  0  0  0  0  0  0  0  0  0  0
    2.0000   -1.0600    0.0000 C   0  0  0  0  0  0  0  0  0  0  0  0
    3.7320   -1.0600    0.0000 C   0  0  0  0  0  0  0  0  0  0  0  0
    2.0000   -2.0600    0.0000 C   0  0  0  0  0  0  0  0  0  0  0  0
    3.7320   -2.0600    0.0000 C   0  0  0  0  0  0  0  0  0  0  0  0
    2.8660   -2.5600    0.0000 C   0  0  0  0  0  0  0  0  0  0  0  0
    4.2690    1.2500    0.0000 H   0  0  0  0  0  0  0  0  0  0  0  0
    4.1996   -0.0349    0.0000 H   0  0  0  0  0  0  0  0  0  0  0  0
    4.9966   -0.0349    0.0000 H   0  0  0  0  0  0  0  0  0  0  0  0
    5.1541    1.4769    0.0000 H   0  0  0  0  0  0  0  0  0  0  0  0
    2.6540    1.0226    0.0000 H   0  0  0  0  0  0  0  0  0  0  0  0
    2.2554    0.3323    0.0000 H   0  0  0  0  0  0  0  0  0  0  0  0
    3.7320    2.5600    0.0000 H   0  0  0  0  0  0  0  0  0  0  0  0
    4.3520    1.9400    0.0000 H   0  0  0  0  0  0  0  0  0  0  0  0
    3.1120    1.9400    0.0000 H   0  0  0  0  0  0  0  0  0  0  0  0
    6.6401    0.9031    0.0000 H   0  0  0  0  0  0  0  0  0  0  0  0
    5.4272   -0.2360    0.0000 H   0  0  0  0  0  0  0  0  0  0  0  0
    6.2741   -0.4630    0.0000 H   0  0  0  0  0  0  0  0  0  0  0  0
    6.5010    0.3840    0.0000 H   0  0  0  0  0  0  0  0  0  0  0  0
    6.8671    1.7500    0.0000 H   0  0  0  0  0  0  0  0  0  0  0  0
    6.0201    1.9769    0.0000 H   0  0  0  0  0  0  0  0  0  0  0  0
    1.4631   -0.7500    0.0000 H   0  0  0  0  0  0  0  0  0  0  0  0
    4.2690   -0.7500    0.0000 H   0  0  0  0  0  0  0  0  0  0  0  0
    1.4631   -2.3700    0.0000 H   0  0  0  0  0  0  0  0  0  0  0  0
    4.2690   -2.3700    0.0000 H   0  0  0  0  0  0  0  0  0  0  0  0
    2.8660   -3.1800    0.0000 H   0  0  0  0  0  0  0  0  0  0  0  0
  1  4  1  0  0  0  0
  1  6  1  0  0  0  0
  1  7  1  0  0  0  0
  1 17  1  0  0  0  0
  3  2  1  1  0  0  0
  2 20  1  0  0  0  0
  2 21  1  0  0  0  0
  2 22  1  0  0  0  0
  3  4  1  0  0  0  0
  3  5  1  0  0  0  0
  3 14  1  0  0  0  0
  4 15  1  0  0  0  0
  4 16  1  0  0  0  0
  5  8  1  0  0  0  0
  5 18  1  0  0  0  0
  5 19  1  0  0  0  0
  6 23  1  0  0  0  0
  6 27  1  0  0  0  0
  6 28  1  0  0  0  0
  7 24  1  0  0  0  0
  7 25  1  0  0  0  0
  7 26  1  0  0  0  0
  8  9  2  0  0  0  0
  8 10  1  0  0  0  0
  9 11  1  0  0  0  0
  9 29  1  0  0  0  0
 10 12  2  0  0  0  0
 10 30  1  0  0  0  0
 11 13  2  0  0  0  0
 11 31  1  0  0  0  0
 12 13  1  0  0  0  0
 12 32  1  0  0  0  0
 13 33  1  0  0  0  0
M  CHG  2   1   1   2   1
M  END
> <PUBCHEM_COMPOUND_CID>
28599415

> <PUBCHEM_COMPOUND_CANONICALIZED>
1

> <PUBCHEM_CACTVS_COMPLEXITY>
128

> <PUBCHEM_CACTVS_HBOND_ACCEPTOR>
0

> <PUBCHEM_CACTVS_HBOND_DONOR>
2

> <PUBCHEM_CACTVS_ROTATABLE_BOND>
4

> <PUBCHEM_CACTVS_SUBSKEYS>
AAADceBzAAAAAAAAAAAAAAAAAAAAAAAAAAAwAAAAAAAAAAABAAAAHAAQAAAADCjBGAQyAIPAAACAAiBCAAACAAAgAAAIiIAIAIgIYCKAkRGUIAAgkAAIiAcQgIAOAAAAAAAAAAAAAAAAAAAAAAAAAAAAAA==

> <PUBCHEM_IUPAC_OPENEYE_NAME>
[(2R)-2-azaniumyl-3-phenyl-propyl]-dimethyl-ammonium

> <PUBCHEM_IUPAC_CAS_NAME>
[(2R)-2-ammonio-3-phenylpropyl]-dimethylammonium

> <PUBCHEM_IUPAC_NAME>
[(2R)-2-azaniumyl-3-phenylpropyl]-dimethylazanium

> <PUBCHEM_IUPAC_SYSTEMATIC_NAME>
[(2R)-2-azaniumyl-3-phenyl-propyl]-dimethyl-azanium

> <PUBCHEM_IUPAC_TRADITIONAL_NAME>
[(2R)-2-ammonio-3-phenyl-propyl]-dimethyl-ammonium

> <PUBCHEM_IUPAC_INCHI>
InChI=1S/C11H18N2/c1-13(2)9-11(12)8-10-6-4-3-5-7-10/h3-7,11H,8-9,12H2,1-2H3/p+2/t11-/m1/s1

> <PUBCHEM_IUPAC_INCHIKEY>
HKHSRJNAQHRMGT-LLVKDONJSA-P

> <PUBCHEM_XLOGP3>
1.4

> <PUBCHEM_EXACT_MASS>
180.162649

> <PUBCHEM_MOLECULAR_FORMULA>
C11H20N2+2

> <PUBCHEM_MOLECULAR_WEIGHT>
180.2899

> <PUBCHEM_OPENEYE_CAN_SMILES>
C[NH+](C)CC(CC1=CC=CC=C1)[NH3+]

> <PUBCHEM_OPENEYE_ISO_SMILES>
C[NH+](C)C[C@@H](CC1=CC=CC=C1)[NH3+]

> <PUBCHEM_CACTVS_TPSA>
32.1

> <PUBCHEM_MONOISOTOPIC_WEIGHT>
180.162649

> <PUBCHEM_TOTAL_CHARGE>
2

> <PUBCHEM_HEAVY_ATOM_COUNT>
13

> <PUBCHEM_ATOM_DEF_STEREO_COUNT>
1

> <PUBCHEM_ATOM_UDEF_STEREO_COUNT>
0

> <PUBCHEM_BOND_DEF_STEREO_COUNT>
0

> <PUBCHEM_BOND_UDEF_STEREO_COUNT>
0

> <PUBCHEM_ISOTOPIC_ATOM_COUNT>
0

> <PUBCHEM_COMPONENT_COUNT>
1

> <PUBCHEM_CACTVS_TAUTO_COUNT>
1

> <PUBCHEM_COORDINATE_TYPE>
1
5
255

> <PUBCHEM_BONDANNOTATIONS>
10  12  8
11  13  8
12  13  8
3  2  5
8  10  8
8  9  8
9  11  8

$$$$
