22675358
  -OEChem-05231305112D

 20 20  0     0  0  0  0  0  0999 V2000
    2.0000   -2.5000    0.0000 Cl  0  0  0  0  0  0  0  0  0  0  0  0
    5.4641    2.5000    0.0000 Cl  0  0  0  0  0  0  0  0  0  0  0  0
    3.7320    2.5000    0.0000 O   0  0  0  0  0  0  0  0  0  0  0  0
    3.7320   -0.5000    0.0000 C   0  0  0  0  0  0  0  0  0  0  0  0
    2.8660   -1.0000    0.0000 C   0  0  0  0  0  0  0  0  0  0  0  0
    3.7320    0.5000    0.0000 C   0  0  0  0  0  0  0  0  0  0  0  0
    4.5981   -1.0000    0.0000 C   0  0  0  0  0  0  0  0  0  0  0  0
    4.5981    1.0000    0.0000 C   0  0  0  0  0  0  0  0  0  0  0  0
    2.8660   -2.0000    0.0000 C   0  0  0  0  0  0  0  0  0  0  0  0
    5.4641   -0.5000    0.0000 C   0  0  0  0  0  0  0  0  0  0  0  0
    5.4641    0.5000    0.0000 C   0  0  0  0  0  0  0  0  0  0  0  0
    4.5981    2.0000    0.0000 C   0  0  0  0  0  0  0  0  0  0  0  0
    2.6540   -0.4174    0.0000 H   0  0  0  0  0  0  0  0  0  0  0  0
    2.2554   -1.1077    0.0000 H   0  0  0  0  0  0  0  0  0  0  0  0
    3.1951    0.8100    0.0000 H   0  0  0  0  0  0  0  0  0  0  0  0
    4.5981   -1.6200    0.0000 H   0  0  0  0  0  0  0  0  0  0  0  0
    3.0781   -2.5826    0.0000 H   0  0  0  0  0  0  0  0  0  0  0  0
    3.4766   -1.8923    0.0000 H   0  0  0  0  0  0  0  0  0  0  0  0
    6.0010   -0.8100    0.0000 H   0  0  0  0  0  0  0  0  0  0  0  0
    6.0010    0.8100    0.0000 H   0  0  0  0  0  0  0  0  0  0  0  0
  1  9  1  0  0  0  0
  2 12  1  0  0  0  0
  3 12  2  0  0  0  0
  4  5  1  0  0  0  0
  4  6  2  0  0  0  0
  4  7  1  0  0  0  0
  5  9  1  0  0  0  0
  5 13  1  0  0  0  0
  5 14  1  0  0  0  0
  6  8  1  0  0  0  0
  6 15  1  0  0  0  0
  7 10  2  0  0  0  0
  7 16  1  0  0  0  0
  8 11  2  0  0  0  0
  8 12  1  0  0  0  0
  9 17  1  0  0  0  0
  9 18  1  0  0  0  0
 10 11  1  0  0  0  0
 10 19  1  0  0  0  0
 11 20  1  0  0  0  0
M  END
> <PUBCHEM_COMPOUND_CID>
22675358

> <PUBCHEM_COMPOUND_CANONICALIZED>
1

> <PUBCHEM_CACTVS_COMPLEXITY>
159

> <PUBCHEM_CACTVS_HBOND_ACCEPTOR>
1

> <PUBCHEM_CACTVS_HBOND_DONOR>
0

> <PUBCHEM_CACTVS_ROTATABLE_BOND>
3

> <PUBCHEM_CACTVS_SUBSKEYS>
AAADccBwIAAGAAAAAAAAAAAAAAAAAAAAAAAwAAAAAAAAAAABAAAAGgIAAAAADAOAmEAwAIAAAACIAmBaAAACAAAkAAAIiAEAAsgIIDKBFRCAIQAggAAIiYcIiMCOAAACAAAAAAAAAAQAAAAAAAAAAAAAAA==

> <PUBCHEM_IUPAC_OPENEYE_NAME>
3-(2-chloroethyl)benzoyl chloride

> <PUBCHEM_IUPAC_CAS_NAME>
3-(2-chloroethyl)benzoyl chloride

> <PUBCHEM_IUPAC_NAME>
3-(2-chloroethyl)benzoyl chloride

> <PUBCHEM_IUPAC_SYSTEMATIC_NAME>
3-(2-chloroethyl)benzoyl chloride

> <PUBCHEM_IUPAC_TRADITIONAL_NAME>
3-(2-chloroethyl)benzoyl chloride

> <PUBCHEM_IUPAC_INCHI>
InChI=1S/C9H8Cl2O/c10-5-4-7-2-1-3-8(6-7)9(11)12/h1-3,6H,4-5H2

> <PUBCHEM_IUPAC_INCHIKEY>
BRFLBWXLTKJAOZ-UHFFFAOYSA-N

> <PUBCHEM_XLOGP3>
3.8

> <PUBCHEM_EXACT_MASS>
201.99522

> <PUBCHEM_MOLECULAR_FORMULA>
C9H8Cl2O

> <PUBCHEM_MOLECULAR_WEIGHT>
203.06522

> <PUBCHEM_OPENEYE_CAN_SMILES>
C1=CC(=CC(=C1)CCCl)C(=O)Cl

> <PUBCHEM_OPENEYE_ISO_SMILES>
C1=CC(=CC(=C1)CCCl)C(=O)Cl

> <PUBCHEM_CACTVS_TPSA>
17.1

> <PUBCHEM_MONOISOTOPIC_WEIGHT>
201.99522

> <PUBCHEM_TOTAL_CHARGE>
0

> <PUBCHEM_HEAVY_ATOM_COUNT>
12

> <PUBCHEM_ATOM_DEF_STEREO_COUNT>
0

> <PUBCHEM_ATOM_UDEF_STEREO_COUNT>
0

> <PUBCHEM_BOND_DEF_STEREO_COUNT>
0

> <PUBCHEM_BOND_UDEF_STEREO_COUNT>
0

> <PUBCHEM_ISOTOPIC_ATOM_COUNT>
0

> <PUBCHEM_COMPONENT_COUNT>
1

> <PUBCHEM_CACTVS_TAUTO_COUNT>
1

> <PUBCHEM_COORDINATE_TYPE>
1
5
255

> <PUBCHEM_BONDANNOTATIONS>
10  11  8
4  6  8
4  7  8
6  8  8
7  10  8
8  11  8

$$$$
22675641
  -OEChem-05231305112D

 29 29  0     1  0  0  0  0  0999 V2000
    2.8660   -2.5000    0.0000 N   0  0  0  0  0  0  0  0  0  0  0  0
    2.8660    1.5000    0.0000 C   0  0  3  0  0  0  0  0  0  0  0  0
    3.7320    2.0000    0.0000 C   0  0  0  0  0  0  0  0  0  0  0  0
    2.8660    0.5000    0.0000 C   0  0  0  0  0  0  0  0  0  0  0  0
    2.0000    2.0000    0.0000 C   0  0  0  0  0  0  0  0  0  0  0  0
    2.0000    0.0000    0.0000 C   0  0  0  0  0  0  0  0  0  0  0  0
    3.7320    0.0000    0.0000 C   0  0  0  0  0  0  0  0  0  0  0  0
    3.7320    3.0000    0.0000 C   0  0  0  0  0  0  0  0  0  0  0  0
    2.8660   -1.5000    0.0000 C   0  0  0  0  0  0  0  0  0  0  0  0
    2.0000   -1.0000    0.0000 C   0  0  0  0  0  0  0  0  0  0  0  0
    3.7320   -1.0000    0.0000 C   0  0  0  0  0  0  0  0  0  0  0  0
    2.0000   -3.0000    0.0000 C   0  0  0  0  0  0  0  0  0  0  0  0
    2.8660    2.1200    0.0000 H   0  0  0  0  0  0  0  0  0  0  0  0
    3.9441    1.4174    0.0000 H   0  0  0  0  0  0  0  0  0  0  0  0
    4.3426    2.1077    0.0000 H   0  0  0  0  0  0  0  0  0  0  0  0
    2.3100    2.5369    0.0000 H   0  0  0  0  0  0  0  0  0  0  0  0
    1.4631    2.3100    0.0000 H   0  0  0  0  0  0  0  0  0  0  0  0
    1.6900    1.4631    0.0000 H   0  0  0  0  0  0  0  0  0  0  0  0
    1.4631    0.3100    0.0000 H   0  0  0  0  0  0  0  0  0  0  0  0
    4.2690    0.3100    0.0000 H   0  0  0  0  0  0  0  0  0  0  0  0
    4.3520    3.0000    0.0000 H   0  0  0  0  0  0  0  0  0  0  0  0
    3.7320    3.6200    0.0000 H   0  0  0  0  0  0  0  0  0  0  0  0
    3.1120    3.0000    0.0000 H   0  0  0  0  0  0  0  0  0  0  0  0
    1.4631   -1.3100    0.0000 H   0  0  0  0  0  0  0  0  0  0  0  0
    4.2690   -1.3100    0.0000 H   0  0  0  0  0  0  0  0  0  0  0  0
    3.4030   -2.8100    0.0000 H   0  0  0  0  0  0  0  0  0  0  0  0
    1.6900   -2.4631    0.0000 H   0  0  0  0  0  0  0  0  0  0  0  0
    1.4631   -3.3100    0.0000 H   0  0  0  0  0  0  0  0  0  0  0  0
    2.3100   -3.5369    0.0000 H   0  0  0  0  0  0  0  0  0  0  0  0
  1  9  1  0  0  0  0
  1 12  1  0  0  0  0
  1 26  1  0  0  0  0
  2  3  1  0  0  0  0
  2  4  1  0  0  0  0
  2  5  1  0  0  0  0
  2 13  1  0  0  0  0
  3  8  1  0  0  0  0
  3 14  1  0  0  0  0
  3 15  1  0  0  0  0
  4  6  2  0  0  0  0
  4  7  1  0  0  0  0
  5 16  1  0  0  0  0
  5 17  1  0  0  0  0
  5 18  1  0  0  0  0
  6 10  1  0  0  0  0
  6 19  1  0  0  0  0
  7 11  2  0  0  0  0
  7 20  1  0  0  0  0
  8 21  1  0  0  0  0
  8 22  1  0  0  0  0
  8 23  1  0  0  0  0
  9 10  2  0  0  0  0
  9 11  1  0  0  0  0
 10 24  1  0  0  0  0
 11 25  1  0  0  0  0
 12 27  1  0  0  0  0
 12 28  1  0  0  0  0
 12 29  1  0  0  0  0
M  END
> <PUBCHEM_COMPOUND_CID>
22675641

> <PUBCHEM_COMPOUND_CANONICALIZED>
1

> <PUBCHEM_CACTVS_COMPLEXITY>
114

> <PUBCHEM_CACTVS_HBOND_ACCEPTOR>
1

> <PUBCHEM_CACTVS_HBOND_DONOR>
1

> <PUBCHEM_CACTVS_ROTATABLE_BOND>
3

> <PUBCHEM_CACTVS_SUBSKEYS>
AAADceByAAAAAAAAAAAAAAAAAAAAAAAAAAAwAAAAAAAAAAABAAAAHAAQAAAADQiBGAQywILAAACAAiRCQACCAAAhAgAIiIAIZIgIICLAkZGEIAhgkABIyAcQgMAOiAAAAAAAAAAQAAAAAAAAAAAAAAAAAA==

> <PUBCHEM_IUPAC_OPENEYE_NAME>
N-methyl-4-sec-butyl-aniline

> <PUBCHEM_IUPAC_CAS_NAME>
4-butan-2-yl-N-methylaniline

> <PUBCHEM_IUPAC_NAME>
4-butan-2-yl-N-methylaniline

> <PUBCHEM_IUPAC_SYSTEMATIC_NAME>
4-butan-2-yl-N-methyl-aniline

> <PUBCHEM_IUPAC_TRADITIONAL_NAME>
methyl-(4-sec-butylphenyl)amine

> <PUBCHEM_IUPAC_INCHI>
InChI=1S/C11H17N/c1-4-9(2)10-5-7-11(12-3)8-6-10/h5-9,12H,4H2,1-3H3

> <PUBCHEM_IUPAC_INCHIKEY>
HWHGDDHBMJCYSF-UHFFFAOYSA-N

> <PUBCHEM_XLOGP3>
3.4

> <PUBCHEM_EXACT_MASS>
163.1361

> <PUBCHEM_MOLECULAR_FORMULA>
C11H17N

> <PUBCHEM_MOLECULAR_WEIGHT>
163.25938

> <PUBCHEM_OPENEYE_CAN_SMILES>
CCC(C)C1=CC=C(C=C1)NC

> <PUBCHEM_OPENEYE_ISO_SMILES>
CCC(C)C1=CC=C(C=C1)NC

> <PUBCHEM_CACTVS_TPSA>
12

> <PUBCHEM_MONOISOTOPIC_WEIGHT>
163.1361

> <PUBCHEM_TOTAL_CHARGE>
0

> <PUBCHEM_HEAVY_ATOM_COUNT>
12

> <PUBCHEM_ATOM_DEF_STEREO_COUNT>
0

> <PUBCHEM_ATOM_UDEF_STEREO_COUNT>
1

> <PUBCHEM_BOND_DEF_STEREO_COUNT>
0

> <PUBCHEM_BOND_UDEF_STEREO_COUNT>
0

> <PUBCHEM_ISOTOPIC_ATOM_COUNT>
0

> <PUBCHEM_COMPONENT_COUNT>
1

> <PUBCHEM_CACTVS_TAUTO_COUNT>
1

> <PUBCHEM_COORDINATE_TYPE>
1
5
255

> <PUBCHEM_BONDANNOTATIONS>
2  5  3
4  6  8
4  7  8
6  10  8
7  11  8
9  10  8
9  11  8

$$$$
22676806
  -OEChem-05231305112D

 23 24  0     0  0  0  0  0  0999 V2000
    2.0000   -2.6830    0.0000 I   0  0  0  0  0  0  0  0  0  0  0  0
    3.7320    0.3170    0.0000 O   0  0  0  0  0  0  0  0  0  0  0  0
    4.5981    1.8170    0.0000 C   0  0  0  0  0  0  0  0  0  0  0  0
    5.0981    2.6830    0.0000 C   0  0  0  0  0  0  0  0  0  0  0  0
    4.0981    2.6830    0.0000 C   0  0  0  0  0  0  0  0  0  0  0  0
    4.5981    0.8170    0.0000 C   0  0  0  0  0  0  0  0  0  0  0  0
    3.7320   -0.6830    0.0000 C   0  0  0  0  0  0  0  0  0  0  0  0
    2.8660   -1.1830    0.0000 C   0  0  0  0  0  0  0  0  0  0  0  0
    4.5981   -1.1830    0.0000 C   0  0  0  0  0  0  0  0  0  0  0  0
    2.8660   -2.1830    0.0000 C   0  0  0  0  0  0  0  0  0  0  0  0
    4.5981   -2.1830    0.0000 C   0  0  0  0  0  0  0  0  0  0  0  0
    3.7320   -2.6830    0.0000 C   0  0  0  0  0  0  0  0  0  0  0  0
    5.1970    1.6565    0.0000 H   0  0  0  0  0  0  0  0  0  0  0  0
    5.6807    2.4710    0.0000 H   0  0  0  0  0  0  0  0  0  0  0  0
    5.2057    3.2936    0.0000 H   0  0  0  0  0  0  0  0  0  0  0  0
    3.9904    3.2936    0.0000 H   0  0  0  0  0  0  0  0  0  0  0  0
    3.5155    2.4710    0.0000 H   0  0  0  0  0  0  0  0  0  0  0  0
    4.8101    0.2344    0.0000 H   0  0  0  0  0  0  0  0  0  0  0  0
    5.2087    0.9246    0.0000 H   0  0  0  0  0  0  0  0  0  0  0  0
    2.3291   -0.8730    0.0000 H   0  0  0  0  0  0  0  0  0  0  0  0
    5.1350   -0.8730    0.0000 H   0  0  0  0  0  0  0  0  0  0  0  0
    5.1350   -2.4930    0.0000 H   0  0  0  0  0  0  0  0  0  0  0  0
    3.7320   -3.3030    0.0000 H   0  0  0  0  0  0  0  0  0  0  0  0
  1 10  1  0  0  0  0
  2  6  1  0  0  0  0
  2  7  1  0  0  0  0
  3  4  1  0  0  0  0
  3  5  1  0  0  0  0
  3  6  1  0  0  0  0
  3 13  1  0  0  0  0
  4  5  1  0  0  0  0
  4 14  1  0  0  0  0
  4 15  1  0  0  0  0
  5 16  1  0  0  0  0
  5 17  1  0  0  0  0
  6 18  1  0  0  0  0
  6 19  1  0  0  0  0
  7  8  2  0  0  0  0
  7  9  1  0  0  0  0
  8 10  1  0  0  0  0
  8 20  1  0  0  0  0
  9 11  2  0  0  0  0
  9 21  1  0  0  0  0
 10 12  2  0  0  0  0
 11 12  1  0  0  0  0
 11 22  1  0  0  0  0
 12 23  1  0  0  0  0
M  END
> <PUBCHEM_COMPOUND_CID>
22676806

> <PUBCHEM_COMPOUND_CANONICALIZED>
1

> <PUBCHEM_CACTVS_COMPLEXITY>
145

> <PUBCHEM_CACTVS_HBOND_ACCEPTOR>
1

> <PUBCHEM_CACTVS_HBOND_DONOR>
0

> <PUBCHEM_CACTVS_ROTATABLE_BOND>
3

> <PUBCHEM_CACTVS_SUBSKEYS>
AAADccBwIAAAAgAAAAAAAAAAGAAAAAAAAAAwAAAAAAAAAAABAAAAGgAgAAAADQSikAIwBoAABACAACBCAAACCAAgIAAIiAAGCIgMJiKEMRqCOCCkwBEIqAeAQAAAAAAAAAAAAAAAAAAAAAAAAAAAAAAAAA==

> <PUBCHEM_IUPAC_OPENEYE_NAME>
1-(cyclopropylmethoxy)-3-iodo-benzene

> <PUBCHEM_IUPAC_CAS_NAME>
1-(cyclopropylmethoxy)-3-iodobenzene

> <PUBCHEM_IUPAC_NAME>
1-(cyclopropylmethoxy)-3-iodobenzene

> <PUBCHEM_IUPAC_SYSTEMATIC_NAME>
1-(cyclopropylmethoxy)-3-iodanyl-benzene

> <PUBCHEM_IUPAC_TRADITIONAL_NAME>
1-(cyclopropylmethoxy)-3-iodo-benzene

> <PUBCHEM_IUPAC_INCHI>
InChI=1S/C10H11IO/c11-9-2-1-3-10(6-9)12-7-8-4-5-8/h1-3,6,8H,4-5,7H2

> <PUBCHEM_IUPAC_INCHIKEY>
CPQHVKPUMFIIRO-UHFFFAOYSA-N

> <PUBCHEM_XLOGP3>
3.6

> <PUBCHEM_EXACT_MASS>
273.985463

> <PUBCHEM_MOLECULAR_FORMULA>
C10H11IO

> <PUBCHEM_MOLECULAR_WEIGHT>
274.09821

> <PUBCHEM_OPENEYE_CAN_SMILES>
C1CC1COC2=CC(=CC=C2)I

> <PUBCHEM_OPENEYE_ISO_SMILES>
C1CC1COC2=CC(=CC=C2)I

> <PUBCHEM_CACTVS_TPSA>
9.2

> <PUBCHEM_MONOISOTOPIC_WEIGHT>
273.985463

> <PUBCHEM_TOTAL_CHARGE>
0

> <PUBCHEM_HEAVY_ATOM_COUNT>
12

> <PUBCHEM_ATOM_DEF_STEREO_COUNT>
0

> <PUBCHEM_ATOM_UDEF_STEREO_COUNT>
0

> <PUBCHEM_BOND_DEF_STEREO_COUNT>
0

> <PUBCHEM_BOND_UDEF_STEREO_COUNT>
0

> <PUBCHEM_ISOTOPIC_ATOM_COUNT>
0

> <PUBCHEM_COMPONENT_COUNT>
1

> <PUBCHEM_CACTVS_TAUTO_COUNT>
1

> <PUBCHEM_COORDINATE_TYPE>
1
5
255

> <PUBCHEM_BONDANNOTATIONS>
10  12  8
11  12  8
7  8  8
7  9  8
8  10  8
9  11  8

$$$$
22677618
  -OEChem-05231305112D

 34 36  0     1  0  0  0  0  0999 V2000
    5.9405    0.9902    0.0000 O   0  0  0  0  0  0  0  0  0  0  0  0
    4.6844    3.2525    0.0000 O   0  0  0  0  0  0  0  0  0  0  0  0
    3.4026    1.4946    0.0000 O   0  0  0  0  0  0  0  0  0  0  0  0
    7.4408    1.1216    0.0000 O   0  0  0  0  0  0  0  0  0  0  0  0
    4.6783   -0.2677    0.0000 N   0  0  0  0  0  0  0  0  0  0  0  0
    6.2529    2.9407    0.0000 N   0  0  0  0  0  0  0  0  0  0  0  0
    4.6783   -1.8772    0.0000 N   0  0  0  0  0  0  0  0  0  0  0  0
    2.8660   -0.0724    0.0000 N   0  0  0  0  0  0  0  0  0  0  0  0
    7.2314    3.1470    0.0000 N   0  3  0  0  0  0  0  0  0  0  0  0
    2.0000   -1.5724    0.0000 N   0  0  0  0  0  0  0  0  0  0  0  0
    2.8660   -3.0724    0.0000 N   0  0  0  0  0  0  0  0  0  0  0  0
    8.2099    3.3532    0.0000 N   0  5  0  0  0  0  0  0  0  0  0  0
    4.9917    2.3009    0.0000 C   0  0  3  0  0  0  0  0  0  0  0  0
    4.4026    1.4929    0.0000 C   0  0  3  0  0  0  0  0  0  0  0  0
    5.9422    1.9902    0.0000 C   0  0  3  0  0  0  0  0  0  0  0  0
    4.9889    0.6828    0.0000 C   0  0  3  0  0  0  0  0  0  0  0  0
    6.9422    1.9885    0.0000 C   0  0  0  0  0  0  0  0  0  0  0  0
    3.7320   -0.5724    0.0000 C   0  0  0  0  0  0  0  0  0  0  0  0
    5.2619   -1.0724    0.0000 C   0  0  0  0  0  0  0  0  0  0  0  0
    3.7320   -1.5724    0.0000 C   0  0  0  0  0  0  0  0  0  0  0  0
    2.8660   -2.0724    0.0000 C   0  0  0  0  0  0  0  0  0  0  0  0
    2.0000   -0.5724    0.0000 C   0  0  0  0  0  0  0  0  0  0  0  0
    5.4309    2.7385    0.0000 H   0  0  0  0  0  0  0  0  0  0  0  0
    4.1220    2.0458    0.0000 H   0  0  0  0  0  0  0  0  0  0  0  0
    5.4266    0.2437    0.0000 H   0  0  0  0  0  0  0  0  0  0  0  0
    7.5252    2.1995    0.0000 H   0  0  0  0  0  0  0  0  0  0  0  0
    6.8356    2.5992    0.0000 H   0  0  0  0  0  0  0  0  0  0  0  0
    4.0781    3.3824    0.0000 H   0  0  0  0  0  0  0  0  0  0  0  0
    3.0935    2.0321    0.0000 H   0  0  0  0  0  0  0  0  0  0  0  0
    5.8819   -1.0724    0.0000 H   0  0  0  0  0  0  0  0  0  0  0  0
    8.0608    1.1205    0.0000 H   0  0  0  0  0  0  0  0  0  0  0  0
    1.4631   -0.2624    0.0000 H   0  0  0  0  0  0  0  0  0  0  0  0
    2.3291   -3.3824    0.0000 H   0  0  0  0  0  0  0  0  0  0  0  0
    3.4030   -3.3824    0.0000 H   0  0  0  0  0  0  0  0  0  0  0  0
  1 15  1  0  0  0  0
  1 16  1  0  0  0  0
  2 13  1  0  0  0  0
  2 28  1  0  0  0  0
  3 14  1  0  0  0  0
  3 29  1  0  0  0  0
  4 17  1  0  0  0  0
  4 31  1  0  0  0  0
  5 16  1  0  0  0  0
  5 18  1  0  0  0  0
  5 19  1  0  0  0  0
  6  9  2  0  0  0  0
  6 15  1  0  0  0  0
  7 19  2  0  0  0  0
  7 20  1  0  0  0  0
  8 18  2  0  0  0  0
  8 22  1  0  0  0  0
  9 12  2  0  0  0  0
 10 21  1  0  0  0  0
 10 22  2  0  0  0  0
 11 21  1  0  0  0  0
 11 33  1  0  0  0  0
 11 34  1  0  0  0  0
 13 14  1  0  0  0  0
 13 15  1  0  0  0  0
 13 23  1  0  0  0  0
 14 16  1  0  0  0  0
 14 24  1  0  0  0  0
 15 17  1  0  0  0  0
 16 25  1  0  0  0  0
 17 26  1  0  0  0  0
 17 27  1  0  0  0  0
 18 20  1  0  0  0  0
 19 30  1  0  0  0  0
 20 21  2  0  0  0  0
 22 32  1  0  0  0  0
M  CHG  2   9   1  12  -1
M  END
> <PUBCHEM_COMPOUND_CID>
22677618

> <PUBCHEM_COMPOUND_CANONICALIZED>
1

> <PUBCHEM_CACTVS_COMPLEXITY>
476

> <PUBCHEM_CACTVS_HBOND_ACCEPTOR>
10

> <PUBCHEM_CACTVS_HBOND_DONOR>
4

> <PUBCHEM_CACTVS_ROTATABLE_BOND>
3

> <PUBCHEM_CACTVS_SUBSKEYS>
AAADccBz+AAAAAAAAAAAAAAAAAAAAWJAAAAsAAAAAAAAAFgB+AAAHgAYCAAACBzhlwYF8L9MFgCiAQZhZACAgC0REKABUCAoVBCDWAJAyEAeRAgPAALTACDwMAIAAAAAAAAAAAAAAAAAAAAAAAAAAAAAAA==

> <PUBCHEM_IUPAC_OPENEYE_NAME>
5-(6-aminopurin-9-yl)-2-azido-2-(hydroxymethyl)tetrahydrofuran-3,4-diol

> <PUBCHEM_IUPAC_CAS_NAME>
5-(6-aminopurin-9-yl)-2-azido-2-(hydroxymethyl)oxolane-3,4-diol

> <PUBCHEM_IUPAC_NAME>
5-(6-aminopurin-9-yl)-2-azido-2-(hydroxymethyl)oxolane-3,4-diol

> <PUBCHEM_IUPAC_SYSTEMATIC_NAME>
5-(6-aminopurin-9-yl)-2-azido-2-(hydroxymethyl)oxolane-3,4-diol

> <PUBCHEM_IUPAC_TRADITIONAL_NAME>
5-adenin-9-yl-2-azido-2-methylol-tetrahydrofuran-3,4-diol

> <PUBCHEM_IUPAC_INCHI>
InChI=1S/C10H12N8O4/c11-7-4-8(14-2-13-7)18(3-15-4)9-5(20)6(21)10(1-19,22-9)16-17-12/h2-3,5-6,9,19-21H,1H2,(H2,11,13,14)

> <PUBCHEM_IUPAC_INCHIKEY>
BRBOLMMFGHVQNH-UHFFFAOYSA-N

> <PUBCHEM_XLOGP3>
-0.3

> <PUBCHEM_EXACT_MASS>
308.098151

> <PUBCHEM_MOLECULAR_FORMULA>
C10H12N8O4

> <PUBCHEM_MOLECULAR_WEIGHT>
308.25348

> <PUBCHEM_OPENEYE_CAN_SMILES>
C1=NC2=C(C(=N1)N)N=CN2C3C(C(C(O3)(CO)N=[N+]=[N-])O)O

> <PUBCHEM_OPENEYE_ISO_SMILES>
C1=NC2=C(C(=N1)N)N=CN2C3C(C(C(O3)(CO)N=[N+]=[N-])O)O

> <PUBCHEM_CACTVS_TPSA>
154

> <PUBCHEM_MONOISOTOPIC_WEIGHT>
308.098151

> <PUBCHEM_TOTAL_CHARGE>
0

> <PUBCHEM_HEAVY_ATOM_COUNT>
22

> <PUBCHEM_ATOM_DEF_STEREO_COUNT>
0

> <PUBCHEM_ATOM_UDEF_STEREO_COUNT>
4

> <PUBCHEM_BOND_DEF_STEREO_COUNT>
0

> <PUBCHEM_BOND_UDEF_STEREO_COUNT>
1

> <PUBCHEM_ISOTOPIC_ATOM_COUNT>
0

> <PUBCHEM_COMPONENT_COUNT>
1

> <PUBCHEM_CACTVS_TAUTO_COUNT>
3

> <PUBCHEM_COORDINATE_TYPE>
1
5
255

> <PUBCHEM_BONDANNOTATIONS>
10  21  8
10  22  8
15  17  3
18  20  8
13  2  3
20  21  8
14  3  3
16  5  3
5  18  8
5  19  8
6  9  1
7  19  8
7  20  8
8  18  8
8  22  8

$$$$
22698292
  -OEChem-05231305122D

 63 64  0     1  0  0  0  0  0999 V2000
    8.8351   -0.7918    0.0000 O   0  0  0  0  0  0  0  0  0  0  0  0
   10.8566    2.1938    0.0000 O   0  0  0  0  0  0  0  0  0  0  0  0
    7.7331   -1.5924    0.0000 O   0  0  0  0  0  0  0  0  0  0  0  0
   13.6906    2.9944    0.0000 O   0  0  0  0  0  0  0  0  0  0  0  0
   11.9585    2.9944    0.0000 O   0  0  0  0  0  0  0  0  0  0  0  0
   10.9451   -2.3880    0.0000 O   0  0  0  0  0  0  0  0  0  0  0  0
   12.6393   -2.0278    0.0000 O   0  0  0  0  0  0  0  0  0  0  0  0
    2.5369   -1.5924    0.0000 O   0  0  0  0  0  0  0  0  0  0  0  0
    3.4030   -0.0924    0.0000 O   0  0  0  0  0  0  0  0  0  0  0  0
    6.8671   -0.0924    0.0000 N   0  0  0  0  0  0  0  0  0  0  0  0
   12.0155    0.9066    0.0000 N   0  0  0  0  0  0  0  0  0  0  0  0
    9.3703    0.8555    0.0000 N   0  0  0  0  0  0  0  0  0  0  0  0
    6.0010   -2.5924    0.0000 N   0  0  0  0  0  0  0  0  0  0  0  0
    7.6761    0.4954    0.0000 C   0  0  3  0  0  0  0  0  0  0  0  0
    7.3671    1.4465    0.0000 C   0  0  0  0  0  0  0  0  0  0  0  0
    6.3671    1.4465    0.0000 C   0  0  0  0  0  0  0  0  0  0  0  0
    6.0580    0.4954    0.0000 C   0  0  0  0  0  0  0  0  0  0  0  0
   12.8246    1.4944    0.0000 C   0  0  3  0  0  0  0  0  0  0  0  0
   13.6336    0.9066    0.0000 C   0  0  0  0  0  0  0  0  0  0  0  0
   12.3246   -0.0444    0.0000 C   0  0  0  0  0  0  0  0  0  0  0  0
   13.3246   -0.0444    0.0000 C   0  0  0  0  0  0  0  0  0  0  0  0
   10.3213    0.5465    0.0000 C   0  0  3  0  0  0  0  0  0  0  0  0
    8.6271    0.1864    0.0000 C   0  0  0  0  0  0  0  0  0  0  0  0
   11.0645    1.2156    0.0000 C   0  0  0  0  0  0  0  0  0  0  0  0
    6.8671   -1.0924    0.0000 C   0  0  0  0  0  0  0  0  0  0  0  0
   10.5292   -0.4316    0.0000 C   0  0  0  0  0  0  0  0  0  0  0  0
    6.0010   -1.5924    0.0000 C   0  0  3  0  0  0  0  0  0  0  0  0
   12.8246    2.4944    0.0000 C   0  0  0  0  0  0  0  0  0  0  0  0
    5.1350   -1.0924    0.0000 C   0  0  0  0  0  0  0  0  0  0  0  0
   11.4803   -0.7407    0.0000 C   0  0  0  0  0  0  0  0  0  0  0  0
    4.2690   -1.5924    0.0000 C   0  0  0  0  0  0  0  0  0  0  0  0
   11.6882   -1.7188    0.0000 C   0  0  0  0  0  0  0  0  0  0  0  0
    3.4030   -1.0924    0.0000 C   0  0  0  0  0  0  0  0  0  0  0  0
    7.7731   -0.1170    0.0000 H   0  0  0  0  0  0  0  0  0  0  0  0
    7.9735    1.5754    0.0000 H   0  0  0  0  0  0  0  0  0  0  0  0
    7.3022    2.0631    0.0000 H   0  0  0  0  0  0  0  0  0  0  0  0
    6.4319    2.0631    0.0000 H   0  0  0  0  0  0  0  0  0  0  0  0
    5.7606    1.5754    0.0000 H   0  0  0  0  0  0  0  0  0  0  0  0
    5.4916    0.7476    0.0000 H   0  0  0  0  0  0  0  0  0  0  0  0
    5.7480   -0.0415    0.0000 H   0  0  0  0  0  0  0  0  0  0  0  0
   12.2721    1.7759    0.0000 H   0  0  0  0  0  0  0  0  0  0  0  0
   14.2000    0.6544    0.0000 H   0  0  0  0  0  0  0  0  0  0  0  0
   13.9436    1.4436    0.0000 H   0  0  0  0  0  0  0  0  0  0  0  0
   11.7181   -0.1734    0.0000 H   0  0  0  0  0  0  0  0  0  0  0  0
   12.3894   -0.6610    0.0000 H   0  0  0  0  0  0  0  0  0  0  0  0
   13.2597   -0.6610    0.0000 H   0  0  0  0  0  0  0  0  0  0  0  0
   13.9310   -0.1734    0.0000 H   0  0  0  0  0  0  0  0  0  0  0  0
   10.1924    1.1530    0.0000 H   0  0  0  0  0  0  0  0  0  0  0  0
    9.2414    1.4620    0.0000 H   0  0  0  0  0  0  0  0  0  0  0  0
    9.9096   -0.4533    0.0000 H   0  0  0  0  0  0  0  0  0  0  0  0
   10.4430   -1.0456    0.0000 H   0  0  0  0  0  0  0  0  0  0  0  0
    6.5380   -1.9024    0.0000 H   0  0  0  0  0  0  0  0  0  0  0  0
    5.5335   -0.6174    0.0000 H   0  0  0  0  0  0  0  0  0  0  0  0
    4.7365   -0.6174    0.0000 H   0  0  0  0  0  0  0  0  0  0  0  0
   12.0999   -0.7190    0.0000 H   0  0  0  0  0  0  0  0  0  0  0  0
   11.5666   -0.1267    0.0000 H   0  0  0  0  0  0  0  0  0  0  0  0
    5.4641   -2.9024    0.0000 H   0  0  0  0  0  0  0  0  0  0  0  0
    6.5380   -2.9024    0.0000 H   0  0  0  0  0  0  0  0  0  0  0  0
    3.8705   -2.0673    0.0000 H   0  0  0  0  0  0  0  0  0  0  0  0
    4.6675   -2.0673    0.0000 H   0  0  0  0  0  0  0  0  0  0  0  0
   14.2275    2.6844    0.0000 H   0  0  0  0  0  0  0  0  0  0  0  0
   11.0740   -2.9944    0.0000 H   0  0  0  0  0  0  0  0  0  0  0  0
    2.0000   -1.2824    0.0000 H   0  0  0  0  0  0  0  0  0  0  0  0
  1 23  2  0  0  0  0
  2 24  2  0  0  0  0
  3 25  2  0  0  0  0
  4 28  1  0  0  0  0
  4 61  1  0  0  0  0
  5 28  2  0  0  0  0
  6 32  1  0  0  0  0
  6 62  1  0  0  0  0
  7 32  2  0  0  0  0
  8 33  1  0  0  0  0
  8 63  1  0  0  0  0
  9 33  2  0  0  0  0
 10 14  1  0  0  0  0
 10 17  1  0  0  0  0
 10 25  1  0  0  0  0
 11 18  1  0  0  0  0
 11 20  1  0  0  0  0
 11 24  1  0  0  0  0
 12 22  1  0  0  0  0
 12 23  1  0  0  0  0
 12 49  1  0  0  0  0
 13 27  1  0  0  0  0
 13 57  1  0  0  0  0
 13 58  1  0  0  0  0
 14 15  1  0  0  0  0
 14 23  1  0  0  0  0
 14 34  1  0  0  0  0
 15 16  1  0  0  0  0
 15 35  1  0  0  0  0
 15 36  1  0  0  0  0
 16 17  1  0  0  0  0
 16 37  1  0  0  0  0
 16 38  1  0  0  0  0
 17 39  1  0  0  0  0
 17 40  1  0  0  0  0
 18 19  1  0  0  0  0
 18 28  1  0  0  0  0
 18 41  1  0  0  0  0
 19 21  1  0  0  0  0
 19 42  1  0  0  0  0
 19 43  1  0  0  0  0
 20 21  1  0  0  0  0
 20 44  1  0  0  0  0
 20 45  1  0  0  0  0
 21 46  1  0  0  0  0
 21 47  1  0  0  0  0
 22 24  1  0  0  0  0
 22 26  1  0  0  0  0
 22 48  1  0  0  0  0
 25 27  1  0  0  0  0
 26 30  1  0  0  0  0
 26 50  1  0  0  0  0
 26 51  1  0  0  0  0
 27 29  1  0  0  0  0
 27 52  1  0  0  0  0
 29 31  1  0  0  0  0
 29 53  1  0  0  0  0
 29 54  1  0  0  0  0
 30 32  1  0  0  0  0
 30 55  1  0  0  0  0
 30 56  1  0  0  0  0
 31 33  1  0  0  0  0
 31 59  1  0  0  0  0
 31 60  1  0  0  0  0
M  END
> <PUBCHEM_COMPOUND_CID>
22698292

> <PUBCHEM_COMPOUND_CANONICALIZED>
1

> <PUBCHEM_CACTVS_COMPLEXITY>
802

> <PUBCHEM_CACTVS_HBOND_ACCEPTOR>
10

> <PUBCHEM_CACTVS_HBOND_DONOR>
5

> <PUBCHEM_CACTVS_ROTATABLE_BOND>
11

> <PUBCHEM_CACTVS_SUBSKEYS>
AAADceB7vAAAAAAAAAAAAAAAAAAAAWLAAAAAAAAAAAAAAAAAAAAAHgAQCAAACCjBgAQACAPAAgAIAAGQGAAAAAAAAAAAAIGIAAACQBIAgCAUQAAEFgCQAAC8FwIAAAAAAAAAAAAAAAAAAAAAAAAAAAAAAA==

> <PUBCHEM_IUPAC_OPENEYE_NAME>
1-[2-[[1-(2-amino-4-carboxy-butanoyl)pyrrolidine-2-carbonyl]amino]-4-carboxy-butanoyl]pyrrolidine-2-carboxylic acid

> <PUBCHEM_IUPAC_CAS_NAME>
1-[2-[[[1-(2-amino-4-carboxy-1-oxobutyl)-2-pyrrolidinyl]-oxomethyl]amino]-4-carboxy-1-oxobutyl]-2-pyrrolidinecarboxylic acid

> <PUBCHEM_IUPAC_NAME>
1-[2-[[1-(2-amino-4-carboxybutanoyl)pyrrolidine-2-carbonyl]amino]-4-carboxybutanoyl]pyrrolidine-2-carboxylic acid

> <PUBCHEM_IUPAC_SYSTEMATIC_NAME>
1-[2-[[1-(2-azanyl-5-oxidanyl-5-oxidanylidene-pentanoyl)pyrrolidin-2-yl]carbonylamino]-5-oxidanyl-5-oxidanylidene-pentanoyl]pyrrolidine-2-carboxylic acid

> <PUBCHEM_IUPAC_TRADITIONAL_NAME>
1-[2-[[1-(2-amino-4-carboxy-butanoyl)prolyl]amino]-4-carboxy-butanoyl]proline

> <PUBCHEM_IUPAC_INCHI>
InChI=1S/C20H30N4O9/c21-11(5-7-15(25)26)18(30)23-9-1-3-13(23)17(29)22-12(6-8-16(27)28)19(31)24-10-2-4-14(24)20(32)33/h11-14H,1-10,21H2,(H,22,29)(H,25,26)(H,27,28)(H,32,33)

> <PUBCHEM_IUPAC_INCHIKEY>
UUBZKNPDAYYRKW-UHFFFAOYSA-N

> <PUBCHEM_XLOGP3>
-5.2

> <PUBCHEM_EXACT_MASS>
470.201279

> <PUBCHEM_MOLECULAR_FORMULA>
C20H30N4O9

> <PUBCHEM_MOLECULAR_WEIGHT>
470.4736

> <PUBCHEM_OPENEYE_CAN_SMILES>
C1CC(N(C1)C(=O)C(CCC(=O)O)N)C(=O)NC(CCC(=O)O)C(=O)N2CCCC2C(=O)O

> <PUBCHEM_OPENEYE_ISO_SMILES>
C1CC(N(C1)C(=O)C(CCC(=O)O)N)C(=O)NC(CCC(=O)O)C(=O)N2CCCC2C(=O)O

> <PUBCHEM_CACTVS_TPSA>
208

> <PUBCHEM_MONOISOTOPIC_WEIGHT>
470.201279

> <PUBCHEM_TOTAL_CHARGE>
0

> <PUBCHEM_HEAVY_ATOM_COUNT>
33

> <PUBCHEM_ATOM_DEF_STEREO_COUNT>
0

> <PUBCHEM_ATOM_UDEF_STEREO_COUNT>
4

> <PUBCHEM_BOND_DEF_STEREO_COUNT>
0

> <PUBCHEM_BOND_UDEF_STEREO_COUNT>
0

> <PUBCHEM_ISOTOPIC_ATOM_COUNT>
0

> <PUBCHEM_COMPONENT_COUNT>
1

> <PUBCHEM_CACTVS_TAUTO_COUNT>
2

> <PUBCHEM_COORDINATE_TYPE>
1
5
255

> <PUBCHEM_BONDANNOTATIONS>
27  13  3
14  23  3
18  28  3
22  26  3

$$$$
22698461
  -OEChem-05231305122D

 63 64  0     1  0  0  0  0  0999 V2000
    8.8351    0.6952    0.0000 O   0  0  0  0  0  0  0  0  0  0  0  0
    7.7331   -0.1054    0.0000 O   0  0  0  0  0  0  0  0  0  0  0  0
   10.1674    0.4120    0.0000 O   0  0  0  0  0  0  0  0  0  0  0  0
   13.5577   -0.8151    0.0000 O   0  0  0  0  0  0  0  0  0  0  0  0
   13.7387    0.9075    0.0000 O   0  0  0  0  0  0  0  0  0  0  0  0
    2.5369   -0.1054    0.0000 O   0  0  0  0  0  0  0  0  0  0  0  0
    3.4030    1.3946    0.0000 O   0  0  0  0  0  0  0  0  0  0  0  0
   11.7943   -3.2422    0.0000 O   0  0  0  0  0  0  0  0  0  0  0  0
   10.3931   -2.2241    0.0000 O   0  0  0  0  0  0  0  0  0  0  0  0
    9.3703    2.3425    0.0000 N   0  0  0  0  0  0  0  0  0  0  0  0
    6.8671    1.3946    0.0000 N   0  0  0  0  0  0  0  0  0  0  0  0
   11.7497    1.1165    0.0000 N   0  0  0  0  0  0  0  0  0  0  0  0
    6.0010   -1.1054    0.0000 N   0  0  0  0  0  0  0  0  0  0  0  0
    7.6761    1.9824    0.0000 C   0  0  3  0  0  0  0  0  0  0  0  0
   10.3484    2.1346    0.0000 C   0  0  3  0  0  0  0  0  0  0  0  0
    7.3671    2.9334    0.0000 C   0  0  0  0  0  0  0  0  0  0  0  0
   10.8484    3.0006    0.0000 C   0  0  0  0  0  0  0  0  0  0  0  0
    9.2658    3.3370    0.0000 C   0  0  0  0  0  0  0  0  0  0  0  0
    6.3671    2.9334    0.0000 C   0  0  0  0  0  0  0  0  0  0  0  0
    8.6271    1.6734    0.0000 C   0  0  0  0  0  0  0  0  0  0  0  0
    6.0580    1.9824    0.0000 C   0  0  0  0  0  0  0  0  0  0  0  0
   10.1793    3.7438    0.0000 C   0  0  0  0  0  0  0  0  0  0  0  0
    6.8671    0.3946    0.0000 C   0  0  0  0  0  0  0  0  0  0  0  0
   10.7552    1.2210    0.0000 C   0  0  0  0  0  0  0  0  0  0  0  0
    6.0010   -0.1054    0.0000 C   0  0  3  0  0  0  0  0  0  0  0  0
    5.1350    0.3946    0.0000 C   0  0  0  0  0  0  0  0  0  0  0  0
   12.1564    0.2030    0.0000 C   0  0  3  0  0  0  0  0  0  0  0  0
   11.5686   -0.6061    0.0000 C   0  0  0  0  0  0  0  0  0  0  0  0
    4.2690   -0.1054    0.0000 C   0  0  0  0  0  0  0  0  0  0  0  0
   13.1509    0.0984    0.0000 C   0  0  0  0  0  0  0  0  0  0  0  0
   11.9754   -1.5196    0.0000 C   0  0  0  0  0  0  0  0  0  0  0  0
    3.4030    0.3946    0.0000 C   0  0  0  0  0  0  0  0  0  0  0  0
   11.3876   -2.3286    0.0000 C   0  0  0  0  0  0  0  0  0  0  0  0
    7.7731    1.3700    0.0000 H   0  0  0  0  0  0  0  0  0  0  0  0
    9.9582    1.6528    0.0000 H   0  0  0  0  0  0  0  0  0  0  0  0
    7.9735    3.0623    0.0000 H   0  0  0  0  0  0  0  0  0  0  0  0
    7.3022    3.5500    0.0000 H   0  0  0  0  0  0  0  0  0  0  0  0
   11.3500    2.6362    0.0000 H   0  0  0  0  0  0  0  0  0  0  0  0
   11.2633    3.4614    0.0000 H   0  0  0  0  0  0  0  0  0  0  0  0
    9.0742    3.9267    0.0000 H   0  0  0  0  0  0  0  0  0  0  0  0
    8.6593    3.2081    0.0000 H   0  0  0  0  0  0  0  0  0  0  0  0
    6.4319    3.5500    0.0000 H   0  0  0  0  0  0  0  0  0  0  0  0
    5.7606    3.0623    0.0000 H   0  0  0  0  0  0  0  0  0  0  0  0
    5.4916    2.2346    0.0000 H   0  0  0  0  0  0  0  0  0  0  0  0
    5.7480    1.4454    0.0000 H   0  0  0  0  0  0  0  0  0  0  0  0
   10.6809    4.1082    0.0000 H   0  0  0  0  0  0  0  0  0  0  0  0
    9.8693    4.2807    0.0000 H   0  0  0  0  0  0  0  0  0  0  0  0
    6.5380   -0.4154    0.0000 H   0  0  0  0  0  0  0  0  0  0  0  0
   12.1141    1.6181    0.0000 H   0  0  0  0  0  0  0  0  0  0  0  0
    5.5335    0.8695    0.0000 H   0  0  0  0  0  0  0  0  0  0  0  0
    4.7365    0.8695    0.0000 H   0  0  0  0  0  0  0  0  0  0  0  0
   11.5398    0.2678    0.0000 H   0  0  0  0  0  0  0  0  0  0  0  0
    5.4641   -1.4154    0.0000 H   0  0  0  0  0  0  0  0  0  0  0  0
    6.5380   -1.4154    0.0000 H   0  0  0  0  0  0  0  0  0  0  0  0
   11.1380   -0.1601    0.0000 H   0  0  0  0  0  0  0  0  0  0  0  0
   11.0546   -0.9528    0.0000 H   0  0  0  0  0  0  0  0  0  0  0  0
    3.8705   -0.5804    0.0000 H   0  0  0  0  0  0  0  0  0  0  0  0
    4.6675   -0.5804    0.0000 H   0  0  0  0  0  0  0  0  0  0  0  0
   12.4061   -1.9656    0.0000 H   0  0  0  0  0  0  0  0  0  0  0  0
   12.4894   -1.1729    0.0000 H   0  0  0  0  0  0  0  0  0  0  0  0
   14.1743   -0.8799    0.0000 H   0  0  0  0  0  0  0  0  0  0  0  0
    2.0000    0.2046    0.0000 H   0  0  0  0  0  0  0  0  0  0  0  0
   11.4299   -3.7438    0.0000 H   0  0  0  0  0  0  0  0  0  0  0  0
  1 20  2  0  0  0  0
  2 23  2  0  0  0  0
  3 24  2  0  0  0  0
  4 30  1  0  0  0  0
  4 61  1  0  0  0  0
  5 30  2  0  0  0  0
  6 32  1  0  0  0  0
  6 62  1  0  0  0  0
  7 32  2  0  0  0  0
  8 33  1  0  0  0  0
  8 63  1  0  0  0  0
  9 33  2  0  0  0  0
 10 15  1  0  0  0  0
 10 18  1  0  0  0  0
 10 20  1  0  0  0  0
 11 14  1  0  0  0  0
 11 21  1  0  0  0  0
 11 23  1  0  0  0  0
 12 24  1  0  0  0  0
 12 27  1  0  0  0  0
 12 49  1  0  0  0  0
 13 25  1  0  0  0  0
 13 53  1  0  0  0  0
 13 54  1  0  0  0  0
 14 16  1  0  0  0  0
 14 20  1  0  0  0  0
 14 34  1  0  0  0  0
 15 17  1  0  0  0  0
 15 24  1  0  0  0  0
 15 35  1  0  0  0  0
 16 19  1  0  0  0  0
 16 36  1  0  0  0  0
 16 37  1  0  0  0  0
 17 22  1  0  0  0  0
 17 38  1  0  0  0  0
 17 39  1  0  0  0  0
 18 22  1  0  0  0  0
 18 40  1  0  0  0  0
 18 41  1  0  0  0  0
 19 21  1  0  0  0  0
 19 42  1  0  0  0  0
 19 43  1  0  0  0  0
 21 44  1  0  0  0  0
 21 45  1  0  0  0  0
 22 46  1  0  0  0  0
 22 47  1  0  0  0  0
 23 25  1  0  0  0  0
 25 26  1  0  0  0  0
 25 48  1  0  0  0  0
 26 29  1  0  0  0  0
 26 50  1  0  0  0  0
 26 51  1  0  0  0  0
 27 28  1  0  0  0  0
 27 30  1  0  0  0  0
 27 52  1  0  0  0  0
 28 31  1  0  0  0  0
 28 55  1  0  0  0  0
 28 56  1  0  0  0  0
 29 32  1  0  0  0  0
 29 57  1  0  0  0  0
 29 58  1  0  0  0  0
 31 33  1  0  0  0  0
 31 59  1  0  0  0  0
 31 60  1  0  0  0  0
M  END
> <PUBCHEM_COMPOUND_CID>
22698461

> <PUBCHEM_COMPOUND_CANONICALIZED>
1

> <PUBCHEM_CACTVS_COMPLEXITY>
802

> <PUBCHEM_CACTVS_HBOND_ACCEPTOR>
10

> <PUBCHEM_CACTVS_HBOND_DONOR>
5

> <PUBCHEM_CACTVS_ROTATABLE_BOND>
11

> <PUBCHEM_CACTVS_SUBSKEYS>
AAADceB7vAAAAAAAAAAAAAAAAAAAAWLAAAAAAAAAAAAAAAAAAAAAHgAQCAAACCjBgAQACAPAAgAIAAGQGAAAAAAAAAAAAIGIAAACQBIAgCAUQAAEFgCQAAC8NwIAAAAAAAAAAAAAAAAAAAAAAAAAAAAAAA==

> <PUBCHEM_IUPAC_OPENEYE_NAME>
2-[[1-[1-(2-amino-4-carboxy-butanoyl)pyrrolidine-2-carbonyl]pyrrolidine-2-carbonyl]amino]pentanedioic acid

> <PUBCHEM_IUPAC_CAS_NAME>
2-[[[1-[[1-(2-amino-4-carboxy-1-oxobutyl)-2-pyrrolidinyl]-oxomethyl]-2-pyrrolidinyl]-oxomethyl]amino]pentanedioic acid

> <PUBCHEM_IUPAC_NAME>
2-[[1-[1-(2-amino-4-carboxybutanoyl)pyrrolidine-2-carbonyl]pyrrolidine-2-carbonyl]amino]pentanedioic acid

> <PUBCHEM_IUPAC_SYSTEMATIC_NAME>
2-[[1-[1-(2-azanyl-5-oxidanyl-5-oxidanylidene-pentanoyl)pyrrolidin-2-yl]carbonylpyrrolidin-2-yl]carbonylamino]pentanedioic acid

> <PUBCHEM_IUPAC_TRADITIONAL_NAME>
2-[[1-[1-(2-amino-4-carboxy-butanoyl)prolyl]prolyl]amino]glutaric acid

> <PUBCHEM_IUPAC_INCHI>
InChI=1S/C20H30N4O9/c21-11(5-7-15(25)26)18(30)24-10-2-4-14(24)19(31)23-9-1-3-13(23)17(29)22-12(20(32)33)6-8-16(27)28/h11-14H,1-10,21H2,(H,22,29)(H,25,26)(H,27,28)(H,32,33)

> <PUBCHEM_IUPAC_INCHIKEY>
ICEQYOMKWSXDMW-UHFFFAOYSA-N

> <PUBCHEM_XLOGP3>
-5.2

> <PUBCHEM_EXACT_MASS>
470.201279

> <PUBCHEM_MOLECULAR_FORMULA>
C20H30N4O9

> <PUBCHEM_MOLECULAR_WEIGHT>
470.4736

> <PUBCHEM_OPENEYE_CAN_SMILES>
C1CC(N(C1)C(=O)C2CCCN2C(=O)C(CCC(=O)O)N)C(=O)NC(CCC(=O)O)C(=O)O

> <PUBCHEM_OPENEYE_ISO_SMILES>
C1CC(N(C1)C(=O)C2CCCN2C(=O)C(CCC(=O)O)N)C(=O)NC(CCC(=O)O)C(=O)O

> <PUBCHEM_CACTVS_TPSA>
208

> <PUBCHEM_MONOISOTOPIC_WEIGHT>
470.201279

> <PUBCHEM_TOTAL_CHARGE>
0

> <PUBCHEM_HEAVY_ATOM_COUNT>
33

> <PUBCHEM_ATOM_DEF_STEREO_COUNT>
0

> <PUBCHEM_ATOM_UDEF_STEREO_COUNT>
4

> <PUBCHEM_BOND_DEF_STEREO_COUNT>
0

> <PUBCHEM_BOND_UDEF_STEREO_COUNT>
0

> <PUBCHEM_ISOTOPIC_ATOM_COUNT>
0

> <PUBCHEM_COMPONENT_COUNT>
1

> <PUBCHEM_CACTVS_TAUTO_COUNT>
2

> <PUBCHEM_COORDINATE_TYPE>
1
5
255

> <PUBCHEM_BONDANNOTATIONS>
25  13  3
14  20  3
15  24  3
27  28  3

$$$$
