63227538
  -OEChem-11301218222D

 32 32  0     0  0  0  0  0  0999 V2000
    4.5981    0.6270    0.0000 S   0  0  0  0  0  0  0  0  0  0  0  0
    7.1962    4.1270    0.0000 F   0  0  0  0  0  0  0  0  0  0  0  0
    5.8301    4.4930    0.0000 F   0  0  0  0  0  0  0  0  0  0  0  0
    6.8301    2.7610    0.0000 F   0  0  0  0  0  0  0  0  0  0  0  0
    5.5981    0.6270    0.0000 O   0  0  0  0  0  0  0  0  0  0  0  0
    3.5981    0.6270    0.0000 O   0  0  0  0  0  0  0  0  0  0  0  0
    2.0000   -1.8730    0.0000 O   0  5  0  0  0  0  0  0  0  0  0  0
    2.8660   -3.3730    0.0000 O   0  0  0  0  0  0  0  0  0  0  0  0
    4.5981    1.6270    0.0000 N   0  0  0  0  0  0  0  0  0  0  0  0
    4.5981   -3.3730    0.0000 N   0  0  0  0  0  0  0  0  0  0  0  0
    2.8660   -2.3730    0.0000 N   0  3  0  0  0  0  0  0  0  0  0  0
    5.4641   -3.8730    0.0000 N   0  0  0  0  0  0  0  0  0  0  0  0
    5.4641    2.1270    0.0000 C   0  0  0  0  0  0  0  0  0  0  0  0
    4.5981   -0.3730    0.0000 C   0  0  0  0  0  0  0  0  0  0  0  0
    5.4641    3.1270    0.0000 C   0  0  0  0  0  0  0  0  0  0  0  0
    3.7320   -0.8730    0.0000 C   0  0  0  0  0  0  0  0  0  0  0  0
    5.4641   -0.8730    0.0000 C   0  0  0  0  0  0  0  0  0  0  0  0
    3.7320   -1.8730    0.0000 C   0  0  0  0  0  0  0  0  0  0  0  0
    4.5981   -2.3730    0.0000 C   0  0  0  0  0  0  0  0  0  0  0  0
    5.4641   -1.8730    0.0000 C   0  0  0  0  0  0  0  0  0  0  0  0
    6.3301    3.6270    0.0000 C   0  0  0  0  0  0  0  0  0  0  0  0
    5.6762    1.5444    0.0000 H   0  0  0  0  0  0  0  0  0  0  0  0
    6.0747    2.2346    0.0000 H   0  0  0  0  0  0  0  0  0  0  0  0
    4.0611    1.9370    0.0000 H   0  0  0  0  0  0  0  0  0  0  0  0
    5.2520    3.7096    0.0000 H   0  0  0  0  0  0  0  0  0  0  0  0
    4.8535    3.0193    0.0000 H   0  0  0  0  0  0  0  0  0  0  0  0
    3.1951   -0.5630    0.0000 H   0  0  0  0  0  0  0  0  0  0  0  0
    6.0010   -0.5630    0.0000 H   0  0  0  0  0  0  0  0  0  0  0  0
    6.0010   -2.1830    0.0000 H   0  0  0  0  0  0  0  0  0  0  0  0
    4.0611   -3.6830    0.0000 H   0  0  0  0  0  0  0  0  0  0  0  0
    5.4641   -4.4930    0.0000 H   0  0  0  0  0  0  0  0  0  0  0  0
    6.0010   -3.5630    0.0000 H   0  0  0  0  0  0  0  0  0  0  0  0
  1  5  2  0  0  0  0
  1  6  2  0  0  0  0
  1  9  1  0  0  0  0
  1 14  1  0  0  0  0
  2 21  1  0  0  0  0
  3 21  1  0  0  0  0
  4 21  1  0  0  0  0
  7 11  1  0  0  0  0
  8 11  2  0  0  0  0
  9 13  1  0  0  0  0
  9 24  1  0  0  0  0
 10 12  1  0  0  0  0
 10 19  1  0  0  0  0
 10 30  1  0  0  0  0
 11 18  1  0  0  0  0
 12 31  1  0  0  0  0
 12 32  1  0  0  0  0
 13 15  1  0  0  0  0
 13 22  1  0  0  0  0
 13 23  1  0  0  0  0
 14 16  2  0  0  0  0
 14 17  1  0  0  0  0
 15 21  1  0  0  0  0
 15 25  1  0  0  0  0
 15 26  1  0  0  0  0
 16 18  1  0  0  0  0
 16 27  1  0  0  0  0
 17 20  2  0  0  0  0
 17 28  1  0  0  0  0
 18 19  2  0  0  0  0
 19 20  1  0  0  0  0
 20 29  1  0  0  0  0
M  CHG  2   7  -1  11   1
M  END
> <PUBCHEM_COMPOUND_CID>
63227538

> <PUBCHEM_COMPOUND_CANONICALIZED>
1

> <PUBCHEM_CACTVS_COMPLEXITY>
459

> <PUBCHEM_CACTVS_HBOND_ACCEPTOR>
10

> <PUBCHEM_CACTVS_HBOND_DONOR>
3

> <PUBCHEM_CACTVS_ROTATABLE_BOND>
5

> <PUBCHEM_CACTVS_SUBSKEYS>
AAADccBzuYBAAAAAAAAAAAAAAAAAAAAAAAAwAAAAAAAAAAABAAAAHQQcQAAACAjBUBQwwYByQAKBACRCQ3DCBBAgAgI4qJgAdIoIYCKAkZGAIARgkIAIyAcQAAAAAAQAACAAACAACAAAQAAAQAAAAAAAAA==

> <PUBCHEM_IUPAC_OPENEYE_NAME>
4-hydrazino-3-nitro-N-(3,3,3-trifluoropropyl)benzenesulfonamide

> <PUBCHEM_IUPAC_CAS_NAME>
4-hydrazinyl-3-nitro-N-(3,3,3-trifluoropropyl)benzenesulfonamide

> <PUBCHEM_IUPAC_NAME>
4-hydrazinyl-3-nitro-N-(3,3,3-trifluoropropyl)benzenesulfonamide

> <PUBCHEM_IUPAC_SYSTEMATIC_NAME>
4-diazanyl-3-nitro-N-[3,3,3-tris(fluoranyl)propyl]benzenesulfonamide

> <PUBCHEM_IUPAC_TRADITIONAL_NAME>
4-hydrazino-3-nitro-N-(3,3,3-trifluoropropyl)benzenesulfonamide

> <PUBCHEM_IUPAC_INCHI>
InChI=1S/C9H11F3N4O4S/c10-9(11,12)3-4-14-21(19,20)6-1-2-7(15-13)8(5-6)16(17)18/h1-2,5,14-15H,3-4,13H2

> <PUBCHEM_IUPAC_INCHIKEY>
ZHRFQBPXCKQXJR-UHFFFAOYSA-N

> <PUBCHEM_XLOGP3>
2.1

> <PUBCHEM_EXACT_MASS>
328.045311

> <PUBCHEM_MOLECULAR_FORMULA>
C9H11F3N4O4S

> <PUBCHEM_MOLECULAR_WEIGHT>
328.26825

> <PUBCHEM_OPENEYE_CAN_SMILES>
C1=CC(=C(C=C1S(=O)(=O)NCCC(F)(F)F)[N+](=O)[O-])NN

> <PUBCHEM_OPENEYE_ISO_SMILES>
C1=CC(=C(C=C1S(=O)(=O)NCCC(F)(F)F)[N+](=O)[O-])NN

> <PUBCHEM_CACTVS_TPSA>
138

> <PUBCHEM_MONOISOTOPIC_WEIGHT>
328.045311

> <PUBCHEM_TOTAL_CHARGE>
0

> <PUBCHEM_HEAVY_ATOM_COUNT>
21

> <PUBCHEM_ATOM_DEF_STEREO_COUNT>
0

> <PUBCHEM_ATOM_UDEF_STEREO_COUNT>
0

> <PUBCHEM_BOND_DEF_STEREO_COUNT>
0

> <PUBCHEM_BOND_UDEF_STEREO_COUNT>
0

> <PUBCHEM_ISOTOPIC_ATOM_COUNT>
0

> <PUBCHEM_COMPONENT_COUNT>
1

> <PUBCHEM_CACTVS_TAUTO_COUNT>
1

> <PUBCHEM_COORDINATE_TYPE>
1
5
255

> <PUBCHEM_BONDANNOTATIONS>
14  16  8
14  17  8
16  18  8
17  20  8
18  19  8
19  20  8

$$$$
63228010
  -OEChem-11301218222D

 31 31  0     0  0  0  0  0  0999 V2000
    3.7320    0.7220    0.0000 S   0  0  0  0  0  0  0  0  0  0  0  0
    3.7320   -3.2780    0.0000 S   0  0  0  0  0  0  0  0  0  0  0  0
    2.0000   -0.2780    0.0000 F   0  0  0  0  0  0  0  0  0  0  0  0
    6.3301    4.2220    0.0000 F   0  0  0  0  0  0  0  0  0  0  0  0
    4.9641    4.5880    0.0000 F   0  0  0  0  0  0  0  0  0  0  0  0
    5.9641    2.8560    0.0000 F   0  0  0  0  0  0  0  0  0  0  0  0
    4.7320    0.7220    0.0000 O   0  0  0  0  0  0  0  0  0  0  0  0
    2.7320    0.7220    0.0000 O   0  0  0  0  0  0  0  0  0  0  0  0
    4.7320   -3.2780    0.0000 O   0  0  0  0  0  0  0  0  0  0  0  0
    2.7320   -3.2780    0.0000 O   0  0  0  0  0  0  0  0  0  0  0  0
    3.7320    1.7220    0.0000 N   0  0  0  0  0  0  0  0  0  0  0  0
    3.7320   -4.2780    0.0000 N   0  0  0  0  0  0  0  0  0  0  0  0
    3.7320   -0.2780    0.0000 C   0  0  0  0  0  0  0  0  0  0  0  0
    4.5981    2.2220    0.0000 C   0  0  0  0  0  0  0  0  0  0  0  0
    4.5981    3.2220    0.0000 C   0  0  0  0  0  0  0  0  0  0  0  0
    3.7320   -2.2780    0.0000 C   0  0  0  0  0  0  0  0  0  0  0  0
    2.8660   -0.7780    0.0000 C   0  0  0  0  0  0  0  0  0  0  0  0
    4.5981   -0.7780    0.0000 C   0  0  0  0  0  0  0  0  0  0  0  0
    2.8660   -1.7780    0.0000 C   0  0  0  0  0  0  0  0  0  0  0  0
    4.5981   -1.7780    0.0000 C   0  0  0  0  0  0  0  0  0  0  0  0
    5.4641    3.7220    0.0000 C   0  0  0  0  0  0  0  0  0  0  0  0
    4.8101    1.6394    0.0000 H   0  0  0  0  0  0  0  0  0  0  0  0
    5.2087    2.3296    0.0000 H   0  0  0  0  0  0  0  0  0  0  0  0
    3.1951    2.0320    0.0000 H   0  0  0  0  0  0  0  0  0  0  0  0
    4.3860    3.8046    0.0000 H   0  0  0  0  0  0  0  0  0  0  0  0
    3.9875    3.1143    0.0000 H   0  0  0  0  0  0  0  0  0  0  0  0
    5.1350   -0.4680    0.0000 H   0  0  0  0  0  0  0  0  0  0  0  0
    2.3291   -2.0880    0.0000 H   0  0  0  0  0  0  0  0  0  0  0  0
    5.1350   -2.0880    0.0000 H   0  0  0  0  0  0  0  0  0  0  0  0
    4.2690   -4.5880    0.0000 H   0  0  0  0  0  0  0  0  0  0  0  0
    3.1951   -4.5880    0.0000 H   0  0  0  0  0  0  0  0  0  0  0  0
  1  7  2  0  0  0  0
  1  8  2  0  0  0  0
  1 11  1  0  0  0  0
  1 13  1  0  0  0  0
  2  9  2  0  0  0  0
  2 10  2  0  0  0  0
  2 12  1  0  0  0  0
  2 16  1  0  0  0  0
  3 17  1  0  0  0  0
  4 21  1  0  0  0  0
  5 21  1  0  0  0  0
  6 21  1  0  0  0  0
 11 14  1  0  0  0  0
 11 24  1  0  0  0  0
 12 30  1  0  0  0  0
 12 31  1  0  0  0  0
 13 17  2  0  0  0  0
 13 18  1  0  0  0  0
 14 15  1  0  0  0  0
 14 22  1  0  0  0  0
 14 23  1  0  0  0  0
 15 21  1  0  0  0  0
 15 25  1  0  0  0  0
 15 26  1  0  0  0  0
 16 19  2  0  0  0  0
 16 20  1  0  0  0  0
 17 19  1  0  0  0  0
 18 20  2  0  0  0  0
 18 27  1  0  0  0  0
 19 28  1  0  0  0  0
 20 29  1  0  0  0  0
M  END
> <PUBCHEM_COMPOUND_CID>
63228010

> <PUBCHEM_COMPOUND_CANONICALIZED>
1

> <PUBCHEM_CACTVS_COMPLEXITY>
550

> <PUBCHEM_CACTVS_HBOND_ACCEPTOR>
10

> <PUBCHEM_CACTVS_HBOND_DONOR>
2

> <PUBCHEM_CACTVS_ROTATABLE_BOND>
5

> <PUBCHEM_CACTVS_SUBSKEYS>
AAADccBzOcBgAAAAAAAAAAAAAAAAAAAAAAAwAAAAAAAAAAABAAAAHQQQQAAACADBUBwwAYBAAAKAACBCAHBCABAgAAAIiJgAAIgIICKAERCAIAAgkAAIiAcAAAAAAAgAAAAAAAAAEAAAAAAAAAAAAAAAAA==

> <PUBCHEM_IUPAC_OPENEYE_NAME>
2-fluoro-N1-(3,3,3-trifluoropropyl)benzene-1,4-disulfonamide

> <PUBCHEM_IUPAC_CAS_NAME>
2-fluoro-N1-(3,3,3-trifluoropropyl)benzene-1,4-disulfonamide

> <PUBCHEM_IUPAC_NAME>
2-fluoro-1-N-(3,3,3-trifluoropropyl)benzene-1,4-disulfonamide

> <PUBCHEM_IUPAC_SYSTEMATIC_NAME>
2-fluoranyl-N1-[3,3,3-tris(fluoranyl)propyl]benzene-1,4-disulfonamide

> <PUBCHEM_IUPAC_TRADITIONAL_NAME>
2-fluoro-N-(3,3,3-trifluoropropyl)benzene-1,4-disulfonamide

> <PUBCHEM_IUPAC_INCHI>
InChI=1S/C9H10F4N2O4S2/c10-7-5-6(20(14,16)17)1-2-8(7)21(18,19)15-4-3-9(11,12)13/h1-2,5,15H,3-4H2,(H2,14,16,17)

> <PUBCHEM_IUPAC_INCHIKEY>
CTWOCYADQMUGJV-UHFFFAOYSA-N

> <PUBCHEM_XLOGP3>
1.3

> <PUBCHEM_EXACT_MASS>
350.001812

> <PUBCHEM_MOLECULAR_FORMULA>
C9H10F4N2O4S2

> <PUBCHEM_MOLECULAR_WEIGHT>
350.310313

> <PUBCHEM_OPENEYE_CAN_SMILES>
C1=CC(=C(C=C1S(=O)(=O)N)F)S(=O)(=O)NCCC(F)(F)F

> <PUBCHEM_OPENEYE_ISO_SMILES>
C1=CC(=C(C=C1S(=O)(=O)N)F)S(=O)(=O)NCCC(F)(F)F

> <PUBCHEM_CACTVS_TPSA>
123

> <PUBCHEM_MONOISOTOPIC_WEIGHT>
350.001812

> <PUBCHEM_TOTAL_CHARGE>
0

> <PUBCHEM_HEAVY_ATOM_COUNT>
21

> <PUBCHEM_ATOM_DEF_STEREO_COUNT>
0

> <PUBCHEM_ATOM_UDEF_STEREO_COUNT>
0

> <PUBCHEM_BOND_DEF_STEREO_COUNT>
0

> <PUBCHEM_BOND_UDEF_STEREO_COUNT>
0

> <PUBCHEM_ISOTOPIC_ATOM_COUNT>
0

> <PUBCHEM_COMPONENT_COUNT>
1

> <PUBCHEM_CACTVS_TAUTO_COUNT>
1

> <PUBCHEM_COORDINATE_TYPE>
1
5
255

> <PUBCHEM_BONDANNOTATIONS>
13  17  8
13  18  8
16  19  8
16  20  8
17  19  8
18  20  8

$$$$
63244335
  -OEChem-11301218232D

 42 44  0     0  0  0  0  0  0999 V2000
    7.1962    0.4470    0.0000 O   0  0  0  0  0  0  0  0  0  0  0  0
    5.4641    0.4470    0.0000 N   0  0  0  0  0  0  0  0  0  0  0  0
    8.1424   -2.8577    0.0000 N   0  0  0  0  0  0  0  0  0  0  0  0
    4.5981    1.9470    0.0000 C   0  0  0  0  0  0  0  0  0  0  0  0
    2.8660    2.9470    0.0000 C   0  0  0  0  0  0  0  0  0  0  0  0
    3.7320    1.4470    0.0000 C   0  0  0  0  0  0  0  0  0  0  0  0
    4.5981    2.9470    0.0000 C   0  0  0  0  0  0  0  0  0  0  0  0
    2.8660    1.9470    0.0000 C   0  0  0  0  0  0  0  0  0  0  0  0
    3.7320    3.4470    0.0000 C   0  0  0  0  0  0  0  0  0  0  0  0
    5.4641    1.4470    0.0000 C   0  0  0  0  0  0  0  0  0  0  0  0
    2.0000    3.4470    0.0000 C   0  0  0  0  0  0  0  0  0  0  0  0
    6.3301   -0.0530    0.0000 C   0  0  0  0  0  0  0  0  0  0  0  0
    6.3301   -1.0530    0.0000 C   0  0  0  0  0  0  0  0  0  0  0  0
    7.1962   -1.5530    0.0000 C   0  0  0  0  0  0  0  0  0  0  0  0
    7.1962   -2.5530    0.0000 C   0  0  0  0  0  0  0  0  0  0  0  0
    5.4641   -1.5530    0.0000 C   0  0  0  0  0  0  0  0  0  0  0  0
    8.1424   -1.2482    0.0000 C   0  0  0  0  0  0  0  0  0  0  0  0
    6.3301   -3.0530    0.0000 C   0  0  0  0  0  0  0  0  0  0  0  0
    5.4641   -2.5530    0.0000 C   0  0  0  0  0  0  0  0  0  0  0  0
    8.7260   -2.0530    0.0000 C   0  0  0  0  0  0  0  0  0  0  0  0
    4.5981    1.3270    0.0000 H   0  0  0  0  0  0  0  0  0  0  0  0
    2.8660    3.5670    0.0000 H   0  0  0  0  0  0  0  0  0  0  0  0
    5.2087    2.8394    0.0000 H   0  0  0  0  0  0  0  0  0  0  0  0
    4.8101    3.5296    0.0000 H   0  0  0  0  0  0  0  0  0  0  0  0
    3.3335    0.9721    0.0000 H   0  0  0  0  0  0  0  0  0  0  0  0
    4.1306    0.9721    0.0000 H   0  0  0  0  0  0  0  0  0  0  0  0
    4.1306    3.9220    0.0000 H   0  0  0  0  0  0  0  0  0  0  0  0
    3.3335    3.9220    0.0000 H   0  0  0  0  0  0  0  0  0  0  0  0
    2.2554    2.0547    0.0000 H   0  0  0  0  0  0  0  0  0  0  0  0
    2.6540    1.3644    0.0000 H   0  0  0  0  0  0  0  0  0  0  0  0
    6.0747    1.3394    0.0000 H   0  0  0  0  0  0  0  0  0  0  0  0
    5.6762    2.0296    0.0000 H   0  0  0  0  0  0  0  0  0  0  0  0
    2.3100    3.9840    0.0000 H   0  0  0  0  0  0  0  0  0  0  0  0
    1.4631    3.7570    0.0000 H   0  0  0  0  0  0  0  0  0  0  0  0
    1.6900    2.9101    0.0000 H   0  0  0  0  0  0  0  0  0  0  0  0
    4.9272    0.1370    0.0000 H   0  0  0  0  0  0  0  0  0  0  0  0
    4.9272   -1.2430    0.0000 H   0  0  0  0  0  0  0  0  0  0  0  0
    8.3350   -0.6589    0.0000 H   0  0  0  0  0  0  0  0  0  0  0  0
    6.3301   -3.6730    0.0000 H   0  0  0  0  0  0  0  0  0  0  0  0
    4.9272   -2.8630    0.0000 H   0  0  0  0  0  0  0  0  0  0  0  0
    8.3350   -3.4470    0.0000 H   0  0  0  0  0  0  0  0  0  0  0  0
    9.3460   -2.0530    0.0000 H   0  0  0  0  0  0  0  0  0  0  0  0
  1 12  2  0  0  0  0
  2 10  1  0  0  0  0
  2 12  1  0  0  0  0
  2 36  1  0  0  0  0
  3 15  1  0  0  0  0
  3 20  1  0  0  0  0
  3 41  1  0  0  0  0
  4  6  1  0  0  0  0
  4  7  1  0  0  0  0
  4 10  1  0  0  0  0
  4 21  1  0  0  0  0
  5  8  1  0  0  0  0
  5  9  1  0  0  0  0
  5 11  1  0  0  0  0
  5 22  1  0  0  0  0
  6  8  1  0  0  0  0
  6 25  1  0  0  0  0
  6 26  1  0  0  0  0
  7  9  1  0  0  0  0
  7 23  1  0  0  0  0
  7 24  1  0  0  0  0
  8 29  1  0  0  0  0
  8 30  1  0  0  0  0
  9 27  1  0  0  0  0
  9 28  1  0  0  0  0
 10 31  1  0  0  0  0
 10 32  1  0  0  0  0
 11 33  1  0  0  0  0
 11 34  1  0  0  0  0
 11 35  1  0  0  0  0
 12 13  1  0  0  0  0
 13 14  2  0  0  0  0
 13 16  1  0  0  0  0
 14 15  1  0  0  0  0
 14 17  1  0  0  0  0
 15 18  2  0  0  0  0
 16 19  2  0  0  0  0
 16 37  1  0  0  0  0
 17 20  2  0  0  0  0
 17 38  1  0  0  0  0
 18 19  1  0  0  0  0
 18 39  1  0  0  0  0
 19 40  1  0  0  0  0
 20 42  1  0  0  0  0
M  END
> <PUBCHEM_COMPOUND_CID>
63244335

> <PUBCHEM_COMPOUND_CANONICALIZED>
1

> <PUBCHEM_CACTVS_COMPLEXITY>
336

> <PUBCHEM_CACTVS_HBOND_ACCEPTOR>
1

> <PUBCHEM_CACTVS_HBOND_DONOR>
2

> <PUBCHEM_CACTVS_ROTATABLE_BOND>
3

> <PUBCHEM_CACTVS_SUBSKEYS>
AAADceB7IAAAAAAAAAAAAAAAAAAAAWAAAAAwYAAAAAAAAFgB8AAAHgAQAAAADQjBngQ+wPLJkACoAzV3VACCgCA1AiAI2aE4ZNgIIPLAlZGEIQhglgDIyYcciYCOgAAAQAASAACAAACAACQAAAAAAAAAAA==

> <PUBCHEM_IUPAC_OPENEYE_NAME>
N-[(4-methylcyclohexyl)methyl]-1H-indole-4-carboxamide

> <PUBCHEM_IUPAC_CAS_NAME>
N-[(4-methylcyclohexyl)methyl]-1H-indole-4-carboxamide

> <PUBCHEM_IUPAC_NAME>
N-[(4-methylcyclohexyl)methyl]-1H-indole-4-carboxamide

> <PUBCHEM_IUPAC_SYSTEMATIC_NAME>
N-[(4-methylcyclohexyl)methyl]-1H-indole-4-carboxamide

> <PUBCHEM_IUPAC_TRADITIONAL_NAME>
N-[(4-methylcyclohexyl)methyl]-1H-indole-4-carboxamide

> <PUBCHEM_IUPAC_INCHI>
InChI=1S/C17H22N2O/c1-12-5-7-13(8-6-12)11-19-17(20)15-3-2-4-16-14(15)9-10-18-16/h2-4,9-10,12-13,18H,5-8,11H2,1H3,(H,19,20)

> <PUBCHEM_IUPAC_INCHIKEY>
WDBCHMBGSPGFRY-UHFFFAOYSA-N

> <PUBCHEM_XLOGP3>
3.7

> <PUBCHEM_EXACT_MASS>
270.173213

> <PUBCHEM_MOLECULAR_FORMULA>
C17H22N2O

> <PUBCHEM_MOLECULAR_WEIGHT>
270.36938

> <PUBCHEM_OPENEYE_CAN_SMILES>
CC1CCC(CC1)CNC(=O)C2=C3C=CNC3=CC=C2

> <PUBCHEM_OPENEYE_ISO_SMILES>
CC1CCC(CC1)CNC(=O)C2=C3C=CNC3=CC=C2

> <PUBCHEM_CACTVS_TPSA>
44.9

> <PUBCHEM_MONOISOTOPIC_WEIGHT>
270.173213

> <PUBCHEM_TOTAL_CHARGE>
0

> <PUBCHEM_HEAVY_ATOM_COUNT>
20

> <PUBCHEM_ATOM_DEF_STEREO_COUNT>
0

> <PUBCHEM_ATOM_UDEF_STEREO_COUNT>
0

> <PUBCHEM_BOND_DEF_STEREO_COUNT>
0

> <PUBCHEM_BOND_UDEF_STEREO_COUNT>
0

> <PUBCHEM_ISOTOPIC_ATOM_COUNT>
0

> <PUBCHEM_COMPONENT_COUNT>
1

> <PUBCHEM_CACTVS_TAUTO_COUNT>
5

> <PUBCHEM_COORDINATE_TYPE>
1
5
255

> <PUBCHEM_BONDANNOTATIONS>
13  14  8
13  16  8
14  15  8
14  17  8
15  18  8
16  19  8
17  20  8
18  19  8
3  15  8
3  20  8

$$$$
