1904559
  -OEChem-12041209122D

 25 26  0     0  0  0  0  0  0999 V2000
    8.2619   -1.5631    0.0000 O   0  0  0  0  0  0  0  0  0  0  0  0
    4.6783   -0.6357    0.0000 N   0  0  0  0  0  0  0  0  0  0  0  0
    4.6783    0.9737    0.0000 N   0  0  0  0  0  0  0  0  0  0  0  0
    6.2619    0.1690    0.0000 N   0  3  0  0  0  0  0  0  0  0  0  0
    5.2619    0.1690    0.0000 C   0  0  0  0  0  0  0  0  0  0  0  0
    3.7321   -0.3310    0.0000 C   0  0  0  0  0  0  0  0  0  0  0  0
    3.7321    0.6690    0.0000 C   0  0  0  0  0  0  0  0  0  0  0  0
    6.7619   -0.6970    0.0000 C   0  0  0  0  0  0  0  0  0  0  0  0
    2.8660   -0.8310    0.0000 C   0  0  0  0  0  0  0  0  0  0  0  0
    2.8660    1.1690    0.0000 C   0  0  0  0  0  0  0  0  0  0  0  0
    2.0000   -0.3310    0.0000 C   0  0  0  0  0  0  0  0  0  0  0  0
    2.0000    0.6690    0.0000 C   0  0  0  0  0  0  0  0  0  0  0  0
    7.7619   -0.6970    0.0000 C   0  0  0  0  0  0  0  0  0  0  0  0
    4.8709   -1.2251    0.0000 H   0  0  0  0  0  0  0  0  0  0  0  0
    4.8709    1.5631    0.0000 H   0  0  0  0  0  0  0  0  0  0  0  0
    6.5719    0.7059    0.0000 H   0  0  0  0  0  0  0  0  0  0  0  0
    6.1793   -0.9091    0.0000 H   0  0  0  0  0  0  0  0  0  0  0  0
    6.8695   -1.3076    0.0000 H   0  0  0  0  0  0  0  0  0  0  0  0
    2.8660   -1.4510    0.0000 H   0  0  0  0  0  0  0  0  0  0  0  0
    2.8660    1.7890    0.0000 H   0  0  0  0  0  0  0  0  0  0  0  0
    8.3445   -0.4850    0.0000 H   0  0  0  0  0  0  0  0  0  0  0  0
    7.6542   -0.0864    0.0000 H   0  0  0  0  0  0  0  0  0  0  0  0
    1.4631   -0.6410    0.0000 H   0  0  0  0  0  0  0  0  0  0  0  0
    1.4631    0.9790    0.0000 H   0  0  0  0  0  0  0  0  0  0  0  0
    8.8819   -1.5631    0.0000 H   0  0  0  0  0  0  0  0  0  0  0  0
  1 13  1  0  0  0  0
  1 25  1  0  0  0  0
  2  5  1  0  0  0  0
  2  6  1  0  0  0  0
  2 14  1  0  0  0  0
  3  5  1  0  0  0  0
  3  7  1  0  0  0  0
  3 15  1  0  0  0  0
  4  5  2  0  0  0  0
  4  8  1  0  0  0  0
  4 16  1  0  0  0  0
  6  7  1  0  0  0  0
  6  9  2  0  0  0  0
  7 10  2  0  0  0  0
  8 13  1  0  0  0  0
  8 17  1  0  0  0  0
  8 18  1  0  0  0  0
  9 11  1  0  0  0  0
  9 19  1  0  0  0  0
 10 12  1  0  0  0  0
 10 20  1  0  0  0  0
 11 12  2  0  0  0  0
 11 23  1  0  0  0  0
 12 24  1  0  0  0  0
 13 21  1  0  0  0  0
 13 22  1  0  0  0  0
M  CHG  1   4   1
M  END
> <PUBCHEM_COMPOUND_CID>
1904559

> <PUBCHEM_COMPOUND_CANONICALIZED>
1

> <PUBCHEM_CACTVS_COMPLEXITY>
189

> <PUBCHEM_CACTVS_HBOND_ACCEPTOR>
1

> <PUBCHEM_CACTVS_HBOND_DONOR>
4

> <PUBCHEM_CACTVS_ROTATABLE_BOND>
2

> <PUBCHEM_CACTVS_SUBSKEYS>
AAADccBzIAAAAAAAAAAAAAAAAAAAAWAAAAAwAAAAAAAAAFgBAAAAHgAQCAAACAjhkAYxwILAAgCgACRCZACCAAGhAgAJiIAAdIiKcCLAmZGUIAhokAJIyCcQAAAAAAAAAAAAACAAAAAAAAAAQAAAAAAAAA==

> <PUBCHEM_IUPAC_OPENEYE_NAME>
1,3-dihydrobenzimidazol-2-ylidene(2-hydroxyethyl)ammonium

> <PUBCHEM_IUPAC_CAS_NAME>
1,3-dihydrobenzimidazol-2-ylidene(2-hydroxyethyl)ammonium

> <PUBCHEM_IUPAC_NAME>
1,3-dihydrobenzimidazol-2-ylidene(2-hydroxyethyl)azanium

> <PUBCHEM_IUPAC_SYSTEMATIC_NAME>
1,3-dihydrobenzimidazol-2-ylidene(2-hydroxyethyl)azanium

> <PUBCHEM_IUPAC_TRADITIONAL_NAME>
1,3-dihydrobenzimidazol-2-ylidene(2-hydroxyethyl)ammonium

> <PUBCHEM_IUPAC_INCHI>
InChI=1S/C9H11N3O/c13-6-5-10-9-11-7-3-1-2-4-8(7)12-9/h1-4,13H,5-6H2,(H2,10,11,12)/p+1

> <PUBCHEM_IUPAC_INCHIKEY>
FGPOQZOBPMSSAQ-UHFFFAOYSA-O

> <PUBCHEM_XLOGP3>
0.5

> <PUBCHEM_EXACT_MASS>
178.098037

> <PUBCHEM_MOLECULAR_FORMULA>
C9H12N3O+

> <PUBCHEM_MOLECULAR_WEIGHT>
178.21108

> <PUBCHEM_OPENEYE_CAN_SMILES>
C1=CC=C2C(=C1)NC(=[NH+]CCO)N2

> <PUBCHEM_OPENEYE_ISO_SMILES>
C1=CC=C2C(=C1)NC(=[NH+]CCO)N2

> <PUBCHEM_CACTVS_TPSA>
58.3

> <PUBCHEM_MONOISOTOPIC_WEIGHT>
178.098037

> <PUBCHEM_TOTAL_CHARGE>
1

> <PUBCHEM_HEAVY_ATOM_COUNT>
13

> <PUBCHEM_ATOM_DEF_STEREO_COUNT>
0

> <PUBCHEM_ATOM_UDEF_STEREO_COUNT>
0

> <PUBCHEM_BOND_DEF_STEREO_COUNT>
0

> <PUBCHEM_BOND_UDEF_STEREO_COUNT>
0

> <PUBCHEM_ISOTOPIC_ATOM_COUNT>
0

> <PUBCHEM_COMPONENT_COUNT>
1

> <PUBCHEM_CACTVS_TAUTO_COUNT>
2

> <PUBCHEM_COORDINATE_TYPE>
1
5
255

> <PUBCHEM_BONDANNOTATIONS>
10  12  8
11  12  8
2  5  8
2  6  8
3  5  8
3  7  8
6  7  8
6  9  8
7  10  8
9  11  8

$$$$
1909850
  -OEChem-12041209132D

 47 48  0     1  0  0  0  0  0999 V2000
    6.9802   -0.6715    0.0000 O   0  0  0  0  0  0  0  0  0  0  0  0
    4.7895   -2.1551    0.0000 N   0  3  0  0  0  0  0  0  0  0  0  0
    2.5989   -3.6386    0.0000 N   0  3  0  0  0  0  0  0  0  0  0  0
    8.9711    1.2944    0.0000 C   0  0  1  0  0  0  0  0  0  0  0  0
    8.4933    3.2430    0.0000 C   0  0  0  0  0  0  0  0  0  0  0  0
    9.2299    2.2604    0.0000 C   0  0  2  0  0  0  0  0  0  0  0  0
    7.2390    0.2944    0.0000 C   0  0  2  0  0  0  0  0  0  0  0  0
   10.8030    0.5356    0.0000 C   0  0  0  0  0  0  0  0  0  0  0  0
    6.7390    1.1605    0.0000 C   0  0  0  0  0  0  0  0  0  0  0  0
   11.0619    1.5015    0.0000 C   0  0  0  0  0  0  0  0  0  0  0  0
    8.7123    0.3285    0.0000 C   0  0  0  0  0  0  0  0  0  0  0  0
    8.5978    4.2375    0.0000 C   0  0  0  0  0  0  0  0  0  0  0  0
    7.5797    3.6497    0.0000 C   0  0  0  0  0  0  0  0  0  0  0  0
    6.0143   -0.9303    0.0000 C   0  0  0  0  0  0  0  0  0  0  0  0
    5.7555   -1.8962    0.0000 C   0  0  0  0  0  0  0  0  0  0  0  0
    3.8236   -2.4139    0.0000 C   0  0  0  0  0  0  0  0  0  0  0  0
    3.5648   -3.3798    0.0000 C   0  0  0  0  0  0  0  0  0  0  0  0
    9.4499    3.0814    0.0000 H   0  0  0  0  0  0  0  0  0  0  0  0
    7.7309   -0.0830    0.0000 H   0  0  0  0  0  0  0  0  0  0  0  0
   10.5910   -0.0470    0.0000 H   0  0  0  0  0  0  0  0  0  0  0  0
   11.3943    0.3492    0.0000 H   0  0  0  0  0  0  0  0  0  0  0  0
    6.4684    1.7183    0.0000 H   0  0  0  0  0  0  0  0  0  0  0  0
    6.1913    0.8699    0.0000 H   0  0  0  0  0  0  0  0  0  0  0  0
   11.6532    1.3151    0.0000 H   0  0  0  0  0  0  0  0  0  0  0  0
   11.2739    2.0842    0.0000 H   0  0  0  0  0  0  0  0  0  0  0  0
    8.1134    0.4890    0.0000 H   0  0  0  0  0  0  0  0  0  0  0  0
    8.5518   -0.2704    0.0000 H   0  0  0  0  0  0  0  0  0  0  0  0
    9.3111    0.1680    0.0000 H   0  0  0  0  0  0  0  0  0  0  0  0
    9.2144    4.1727    0.0000 H   0  0  0  0  0  0  0  0  0  0  0  0
    8.6626    4.8541    0.0000 H   0  0  0  0  0  0  0  0  0  0  0  0
    7.9812    4.3023    0.0000 H   0  0  0  0  0  0  0  0  0  0  0  0
    7.8319    4.2161    0.0000 H   0  0  0  0  0  0  0  0  0  0  0  0
    7.0134    3.9019    0.0000 H   0  0  0  0  0  0  0  0  0  0  0  0
    7.3276    3.0833    0.0000 H   0  0  0  0  0  0  0  0  0  0  0  0
    5.9602   -0.3127    0.0000 H   0  0  0  0  0  0  0  0  0  0  0  0
    5.3966   -0.8763    0.0000 H   0  0  0  0  0  0  0  0  0  0  0  0
    5.8095   -2.5139    0.0000 H   0  0  0  0  0  0  0  0  0  0  0  0
    6.3731   -1.9503    0.0000 H   0  0  0  0  0  0  0  0  0  0  0  0
    4.9500   -2.7539    0.0000 H   0  0  0  0  0  0  0  0  0  0  0  0
    4.6291   -1.5562    0.0000 H   0  0  0  0  0  0  0  0  0  0  0  0
    3.7696   -1.7962    0.0000 H   0  0  0  0  0  0  0  0  0  0  0  0
    3.2060   -2.3598    0.0000 H   0  0  0  0  0  0  0  0  0  0  0  0
    3.6188   -3.9974    0.0000 H   0  0  0  0  0  0  0  0  0  0  0  0
    4.1824   -3.4338    0.0000 H   0  0  0  0  0  0  0  0  0  0  0  0
    2.0000   -3.7991    0.0000 H   0  0  0  0  0  0  0  0  0  0  0  0
    2.7593   -4.2375    0.0000 H   0  0  0  0  0  0  0  0  0  0  0  0
    2.4384   -3.0398    0.0000 H   0  0  0  0  0  0  0  0  0  0  0  0
  7  1  1  1  0  0  0
  1 14  1  0  0  0  0
  2 15  1  0  0  0  0
  2 16  1  0  0  0  0
  2 39  1  0  0  0  0
  2 40  1  0  0  0  0
  3 17  1  0  0  0  0
  3 45  1  0  0  0  0
  3 46  1  0  0  0  0
  3 47  1  0  0  0  0
  4  5  1  0  0  0  0
  4  7  1  0  0  0  0
  4  8  1  0  0  0  0
  4 11  1  1  0  0  0
  5  6  1  0  0  0  0
  5 12  1  0  0  0  0
  5 13  1  0  0  0  0
  6  9  1  0  0  0  0
  6 10  1  0  0  0  0
  6 18  1  6  0  0  0
  7  9  1  0  0  0  0
  7 19  1  0  0  0  0
  8 10  1  0  0  0  0
  8 20  1  0  0  0  0
  8 21  1  0  0  0  0
  9 22  1  0  0  0  0
  9 23  1  0  0  0  0
 10 24  1  0  0  0  0
 10 25  1  0  0  0  0
 11 26  1  0  0  0  0
 11 27  1  0  0  0  0
 11 28  1  0  0  0  0
 12 29  1  0  0  0  0
 12 30  1  0  0  0  0
 12 31  1  0  0  0  0
 13 32  1  0  0  0  0
 13 33  1  0  0  0  0
 13 34  1  0  0  0  0
 14 15  1  0  0  0  0
 14 35  1  0  0  0  0
 14 36  1  0  0  0  0
 15 37  1  0  0  0  0
 15 38  1  0  0  0  0
 16 17  1  0  0  0  0
 16 41  1  0  0  0  0
 16 42  1  0  0  0  0
 17 43  1  0  0  0  0
 17 44  1  0  0  0  0
M  CHG  2   2   1   3   1
M  END
> <PUBCHEM_COMPOUND_CID>
1909850

> <PUBCHEM_COMPOUND_CANONICALIZED>
1

> <PUBCHEM_CACTVS_COMPLEXITY>
267

> <PUBCHEM_CACTVS_HBOND_ACCEPTOR>
1

> <PUBCHEM_CACTVS_HBOND_DONOR>
2

> <PUBCHEM_CACTVS_ROTATABLE_BOND>
6

> <PUBCHEM_CACTVS_SUBSKEYS>
AAADceBzIAAAAAAAAAAAAAAAAAAAAYMAAAAwAAAAAAAAAAAAAAAAHgAQAAAADxThgAYCAALABAAAAAAAAAAAAAAAAAAAAIAIAAACQAIAAAATAAAEEACQAAGAwPAPgAAAAAAAAACAAAIAABAAAYAADAAAAA==

> <PUBCHEM_IUPAC_OPENEYE_NAME>
2-azaniumylethyl-[2-[(1S,2S,4S)-1,7,7-trimethylnorbornan-2-yl]oxyethyl]ammonium

> <PUBCHEM_IUPAC_CAS_NAME>
2-ammonioethyl-[2-[[(1S,3S,4S)-4,7,7-trimethyl-3-bicyclo[2.2.1]heptanyl]oxy]ethyl]ammonium

> <PUBCHEM_IUPAC_NAME>
2-azaniumylethyl-[2-[[(1S,3S,4S)-4,7,7-trimethyl-3-bicyclo[2.2.1]heptanyl]oxy]ethyl]azanium

> <PUBCHEM_IUPAC_SYSTEMATIC_NAME>
2-azaniumylethyl-[2-[[(1S,3S,4S)-4,7,7-trimethyl-3-bicyclo[2.2.1]heptanyl]oxy]ethyl]azanium

> <PUBCHEM_IUPAC_TRADITIONAL_NAME>
2-ammonioethyl-[2-[(1S,2S,4S)-1,7,7-trimethylnorbornan-2-yl]oxyethyl]ammonium

> <PUBCHEM_IUPAC_INCHI>
InChI=1S/C14H28N2O/c1-13(2)11-4-5-14(13,3)12(10-11)17-9-8-16-7-6-15/h11-12,16H,4-10,15H2,1-3H3/p+2/t11-,12-,14+/m0/s1

> <PUBCHEM_IUPAC_INCHIKEY>
XZILSKGGKMRTMS-SGMGOOAPSA-P

> <PUBCHEM_XLOGP3>
1.9

> <PUBCHEM_EXACT_MASS>
242.235814

> <PUBCHEM_MOLECULAR_FORMULA>
C14H30N2O+2

> <PUBCHEM_MOLECULAR_WEIGHT>
242.4008

> <PUBCHEM_OPENEYE_CAN_SMILES>
CC1(C2CCC1(C(C2)OCC[NH2+]CC[NH3+])C)C

> <PUBCHEM_OPENEYE_ISO_SMILES>
C[C@]12CC[C@H](C1(C)C)C[C@@H]2OCC[NH2+]CC[NH3+]

> <PUBCHEM_CACTVS_TPSA>
53.5

> <PUBCHEM_MONOISOTOPIC_WEIGHT>
242.235814

> <PUBCHEM_TOTAL_CHARGE>
2

> <PUBCHEM_HEAVY_ATOM_COUNT>
17

> <PUBCHEM_ATOM_DEF_STEREO_COUNT>
3

> <PUBCHEM_ATOM_UDEF_STEREO_COUNT>
0

> <PUBCHEM_BOND_DEF_STEREO_COUNT>
0

> <PUBCHEM_BOND_UDEF_STEREO_COUNT>
0

> <PUBCHEM_ISOTOPIC_ATOM_COUNT>
0

> <PUBCHEM_COMPONENT_COUNT>
1

> <PUBCHEM_CACTVS_TAUTO_COUNT>
1

> <PUBCHEM_COORDINATE_TYPE>
1
5
255

> <PUBCHEM_BONDANNOTATIONS>
7  1  5
4  11  5
6  18  6

$$$$
1909852
  -OEChem-12041209132D

 47 48  0     1  0  0  0  0  0999 V2000
    6.9802   -0.6715    0.0000 O   0  0  0  0  0  0  0  0  0  0  0  0
    4.7895   -2.1551    0.0000 N   0  3  0  0  0  0  0  0  0  0  0  0
    2.5989   -3.6386    0.0000 N   0  3  0  0  0  0  0  0  0  0  0  0
    8.9711    1.2944    0.0000 C   0  0  1  0  0  0  0  0  0  0  0  0
    8.4933    3.2430    0.0000 C   0  0  0  0  0  0  0  0  0  0  0  0
    9.2299    2.2604    0.0000 C   0  0  2  0  0  0  0  0  0  0  0  0
    7.2390    0.2944    0.0000 C   0  0  1  0  0  0  0  0  0  0  0  0
   10.8030    0.5356    0.0000 C   0  0  0  0  0  0  0  0  0  0  0  0
    6.7390    1.1605    0.0000 C   0  0  0  0  0  0  0  0  0  0  0  0
   11.0619    1.5015    0.0000 C   0  0  0  0  0  0  0  0  0  0  0  0
    8.7123    0.3285    0.0000 C   0  0  0  0  0  0  0  0  0  0  0  0
    8.5978    4.2375    0.0000 C   0  0  0  0  0  0  0  0  0  0  0  0
    7.5797    3.6497    0.0000 C   0  0  0  0  0  0  0  0  0  0  0  0
    6.0143   -0.9303    0.0000 C   0  0  0  0  0  0  0  0  0  0  0  0
    5.7555   -1.8962    0.0000 C   0  0  0  0  0  0  0  0  0  0  0  0
    3.8236   -2.4139    0.0000 C   0  0  0  0  0  0  0  0  0  0  0  0
    3.5648   -3.3798    0.0000 C   0  0  0  0  0  0  0  0  0  0  0  0
    9.4499    3.0814    0.0000 H   0  0  0  0  0  0  0  0  0  0  0  0
    7.7309   -0.0830    0.0000 H   0  0  0  0  0  0  0  0  0  0  0  0
   10.5910   -0.0470    0.0000 H   0  0  0  0  0  0  0  0  0  0  0  0
   11.3943    0.3492    0.0000 H   0  0  0  0  0  0  0  0  0  0  0  0
    6.4684    1.7183    0.0000 H   0  0  0  0  0  0  0  0  0  0  0  0
    6.1913    0.8699    0.0000 H   0  0  0  0  0  0  0  0  0  0  0  0
   11.6532    1.3151    0.0000 H   0  0  0  0  0  0  0  0  0  0  0  0
   11.2739    2.0842    0.0000 H   0  0  0  0  0  0  0  0  0  0  0  0
    8.1134    0.4890    0.0000 H   0  0  0  0  0  0  0  0  0  0  0  0
    8.5518   -0.2704    0.0000 H   0  0  0  0  0  0  0  0  0  0  0  0
    9.3111    0.1680    0.0000 H   0  0  0  0  0  0  0  0  0  0  0  0
    9.2144    4.1727    0.0000 H   0  0  0  0  0  0  0  0  0  0  0  0
    8.6626    4.8541    0.0000 H   0  0  0  0  0  0  0  0  0  0  0  0
    7.9812    4.3023    0.0000 H   0  0  0  0  0  0  0  0  0  0  0  0
    7.8319    4.2161    0.0000 H   0  0  0  0  0  0  0  0  0  0  0  0
    7.0134    3.9019    0.0000 H   0  0  0  0  0  0  0  0  0  0  0  0
    7.3276    3.0833    0.0000 H   0  0  0  0  0  0  0  0  0  0  0  0
    5.9602   -0.3127    0.0000 H   0  0  0  0  0  0  0  0  0  0  0  0
    5.3966   -0.8763    0.0000 H   0  0  0  0  0  0  0  0  0  0  0  0
    5.8095   -2.5139    0.0000 H   0  0  0  0  0  0  0  0  0  0  0  0
    6.3731   -1.9503    0.0000 H   0  0  0  0  0  0  0  0  0  0  0  0
    4.9500   -2.7539    0.0000 H   0  0  0  0  0  0  0  0  0  0  0  0
    4.6291   -1.5562    0.0000 H   0  0  0  0  0  0  0  0  0  0  0  0
    3.7696   -1.7962    0.0000 H   0  0  0  0  0  0  0  0  0  0  0  0
    3.2060   -2.3598    0.0000 H   0  0  0  0  0  0  0  0  0  0  0  0
    3.6188   -3.9974    0.0000 H   0  0  0  0  0  0  0  0  0  0  0  0
    4.1824   -3.4338    0.0000 H   0  0  0  0  0  0  0  0  0  0  0  0
    2.0000   -3.7991    0.0000 H   0  0  0  0  0  0  0  0  0  0  0  0
    2.7593   -4.2375    0.0000 H   0  0  0  0  0  0  0  0  0  0  0  0
    2.4384   -3.0398    0.0000 H   0  0  0  0  0  0  0  0  0  0  0  0
  7  1  1  6  0  0  0
  1 14  1  0  0  0  0
  2 15  1  0  0  0  0
  2 16  1  0  0  0  0
  2 39  1  0  0  0  0
  2 40  1  0  0  0  0
  3 17  1  0  0  0  0
  3 45  1  0  0  0  0
  3 46  1  0  0  0  0
  3 47  1  0  0  0  0
  4  5  1  0  0  0  0
  4  7  1  0  0  0  0
  4  8  1  0  0  0  0
  4 11  1  1  0  0  0
  5  6  1  0  0  0  0
  5 12  1  0  0  0  0
  5 13  1  0  0  0  0
  6  9  1  0  0  0  0
  6 10  1  0  0  0  0
  6 18  1  6  0  0  0
  7  9  1  0  0  0  0
  7 19  1  0  0  0  0
  8 10  1  0  0  0  0
  8 20  1  0  0  0  0
  8 21  1  0  0  0  0
  9 22  1  0  0  0  0
  9 23  1  0  0  0  0
 10 24  1  0  0  0  0
 10 25  1  0  0  0  0
 11 26  1  0  0  0  0
 11 27  1  0  0  0  0
 11 28  1  0  0  0  0
 12 29  1  0  0  0  0
 12 30  1  0  0  0  0
 12 31  1  0  0  0  0
 13 32  1  0  0  0  0
 13 33  1  0  0  0  0
 13 34  1  0  0  0  0
 14 15  1  0  0  0  0
 14 35  1  0  0  0  0
 14 36  1  0  0  0  0
 15 37  1  0  0  0  0
 15 38  1  0  0  0  0
 16 17  1  0  0  0  0
 16 41  1  0  0  0  0
 16 42  1  0  0  0  0
 17 43  1  0  0  0  0
 17 44  1  0  0  0  0
M  CHG  2   2   1   3   1
M  END
> <PUBCHEM_COMPOUND_CID>
1909852

> <PUBCHEM_COMPOUND_CANONICALIZED>
1

> <PUBCHEM_CACTVS_COMPLEXITY>
267

> <PUBCHEM_CACTVS_HBOND_ACCEPTOR>
1

> <PUBCHEM_CACTVS_HBOND_DONOR>
2

> <PUBCHEM_CACTVS_ROTATABLE_BOND>
6

> <PUBCHEM_CACTVS_SUBSKEYS>
AAADceBzIAAAAAAAAAAAAAAAAAAAAYMAAAAwAAAAAAAAAAAAAAAAHgAQAAAADxThgAYCAALABAAAAAAAAAAAAAAAAAAAAIAIAAACQAIAAAATAAAEEACQAAGAwPAPgAAAAAAAAACAAAIAABAAAYAADAAAAA==

> <PUBCHEM_IUPAC_OPENEYE_NAME>
2-azaniumylethyl-[2-[(1S,2R,4S)-1,7,7-trimethylnorbornan-2-yl]oxyethyl]ammonium

> <PUBCHEM_IUPAC_CAS_NAME>
2-ammonioethyl-[2-[[(1S,3R,4S)-4,7,7-trimethyl-3-bicyclo[2.2.1]heptanyl]oxy]ethyl]ammonium

> <PUBCHEM_IUPAC_NAME>
2-azaniumylethyl-[2-[[(1S,3R,4S)-4,7,7-trimethyl-3-bicyclo[2.2.1]heptanyl]oxy]ethyl]azanium

> <PUBCHEM_IUPAC_SYSTEMATIC_NAME>
2-azaniumylethyl-[2-[[(1S,3R,4S)-4,7,7-trimethyl-3-bicyclo[2.2.1]heptanyl]oxy]ethyl]azanium

> <PUBCHEM_IUPAC_TRADITIONAL_NAME>
2-ammonioethyl-[2-[(1S,2R,4S)-1,7,7-trimethylnorbornan-2-yl]oxyethyl]ammonium

> <PUBCHEM_IUPAC_INCHI>
InChI=1S/C14H28N2O/c1-13(2)11-4-5-14(13,3)12(10-11)17-9-8-16-7-6-15/h11-12,16H,4-10,15H2,1-3H3/p+2/t11-,12+,14+/m0/s1

> <PUBCHEM_IUPAC_INCHIKEY>
XZILSKGGKMRTMS-OUCADQQQSA-P

> <PUBCHEM_XLOGP3>
1.9

> <PUBCHEM_EXACT_MASS>
242.235814

> <PUBCHEM_MOLECULAR_FORMULA>
C14H30N2O+2

> <PUBCHEM_MOLECULAR_WEIGHT>
242.4008

> <PUBCHEM_OPENEYE_CAN_SMILES>
CC1(C2CCC1(C(C2)OCC[NH2+]CC[NH3+])C)C

> <PUBCHEM_OPENEYE_ISO_SMILES>
C[C@]12CC[C@H](C1(C)C)C[C@H]2OCC[NH2+]CC[NH3+]

> <PUBCHEM_CACTVS_TPSA>
53.5

> <PUBCHEM_MONOISOTOPIC_WEIGHT>
242.235814

> <PUBCHEM_TOTAL_CHARGE>
2

> <PUBCHEM_HEAVY_ATOM_COUNT>
17

> <PUBCHEM_ATOM_DEF_STEREO_COUNT>
3

> <PUBCHEM_ATOM_UDEF_STEREO_COUNT>
0

> <PUBCHEM_BOND_DEF_STEREO_COUNT>
0

> <PUBCHEM_BOND_UDEF_STEREO_COUNT>
0

> <PUBCHEM_ISOTOPIC_ATOM_COUNT>
0

> <PUBCHEM_COMPONENT_COUNT>
1

> <PUBCHEM_CACTVS_TAUTO_COUNT>
1

> <PUBCHEM_COORDINATE_TYPE>
1
5
255

> <PUBCHEM_BONDANNOTATIONS>
7  1  6
4  11  5
6  18  6

$$$$
1910750
  -OEChem-12041209132D

 34 36  0     0  0  0  0  0  0999 V2000
    9.4651    0.5000    0.0000 N   0  0  0  0  0  0  0  0  0  0  0  0
    5.1350   -2.0000    0.0000 N   0  0  0  0  0  0  0  0  0  0  0  0
    8.5991    2.0000    0.0000 N   0  0  0  0  0  0  0  0  0  0  0  0
    4.2690   -0.5000    0.0000 N   0  0  0  0  0  0  0  0  0  0  0  0
    3.4030   -2.0000    0.0000 N   0  0  0  0  0  0  0  0  0  0  0  0
   10.3312    2.0000    0.0000 N   0  0  0  0  0  0  0  0  0  0  0  0
    4.2690   -3.5000    0.0000 N   0  0  0  0  0  0  0  0  0  0  0  0
   11.1972    0.5000    0.0000 N   0  0  0  0  0  0  0  0  0  0  0  0
    2.5369   -0.5000    0.0000 N   0  0  0  0  0  0  0  0  0  0  0  0
    9.4651    3.5000    0.0000 N   0  0  0  0  0  0  0  0  0  0  0  0
    6.0010   -0.5000    0.0000 C   0  0  0  0  0  0  0  0  0  0  0  0
    7.7331    0.5000    0.0000 C   0  0  0  0  0  0  0  0  0  0  0  0
    6.8671   -1.0000    0.0000 C   0  0  0  0  0  0  0  0  0  0  0  0
    7.7331   -0.5000    0.0000 C   0  0  0  0  0  0  0  0  0  0  0  0
    6.0010    0.5000    0.0000 C   0  0  0  0  0  0  0  0  0  0  0  0
    6.8671    1.0000    0.0000 C   0  0  0  0  0  0  0  0  0  0  0  0
    5.1350   -1.0000    0.0000 C   0  0  0  0  0  0  0  0  0  0  0  0
    8.5991    1.0000    0.0000 C   0  0  0  0  0  0  0  0  0  0  0  0
    4.2690   -2.5000    0.0000 C   0  0  0  0  0  0  0  0  0  0  0  0
   10.3312    1.0000    0.0000 C   0  0  0  0  0  0  0  0  0  0  0  0
    3.4030   -1.0000    0.0000 C   0  0  0  0  0  0  0  0  0  0  0  0
    9.4651    2.5000    0.0000 C   0  0  0  0  0  0  0  0  0  0  0  0
    6.8671   -1.6200    0.0000 H   0  0  0  0  0  0  0  0  0  0  0  0
    8.2700   -0.8100    0.0000 H   0  0  0  0  0  0  0  0  0  0  0  0
    5.4641    0.8100    0.0000 H   0  0  0  0  0  0  0  0  0  0  0  0
    6.8671    1.6200    0.0000 H   0  0  0  0  0  0  0  0  0  0  0  0
   11.7341    0.8100    0.0000 H   0  0  0  0  0  0  0  0  0  0  0  0
   11.1972   -0.1200    0.0000 H   0  0  0  0  0  0  0  0  0  0  0  0
    3.7320   -3.8100    0.0000 H   0  0  0  0  0  0  0  0  0  0  0  0
    4.8059   -3.8100    0.0000 H   0  0  0  0  0  0  0  0  0  0  0  0
   10.0021    3.8100    0.0000 H   0  0  0  0  0  0  0  0  0  0  0  0
    8.9282    3.8100    0.0000 H   0  0  0  0  0  0  0  0  0  0  0  0
    2.0000   -0.8100    0.0000 H   0  0  0  0  0  0  0  0  0  0  0  0
    2.5369    0.1200    0.0000 H   0  0  0  0  0  0  0  0  0  0  0  0
  1 18  2  0  0  0  0
  1 20  1  0  0  0  0
  2 17  2  0  0  0  0
  2 19  1  0  0  0  0
  3 18  1  0  0  0  0
  3 22  2  0  0  0  0
  4 17  1  0  0  0  0
  4 21  2  0  0  0  0
  5 19  2  0  0  0  0
  5 21  1  0  0  0  0
  6 20  2  0  0  0  0
  6 22  1  0  0  0  0
  7 19  1  0  0  0  0
  7 29  1  0  0  0  0
  7 30  1  0  0  0  0
  8 20  1  0  0  0  0
  8 27  1  0  0  0  0
  8 28  1  0  0  0  0
  9 21  1  0  0  0  0
  9 33  1  0  0  0  0
  9 34  1  0  0  0  0
 10 22  1  0  0  0  0
 10 31  1  0  0  0  0
 10 32  1  0  0  0  0
 11 13  2  0  0  0  0
 11 15  1  0  0  0  0
 11 17  1  0  0  0  0
 12 14  2  0  0  0  0
 12 16  1  0  0  0  0
 12 18  1  0  0  0  0
 13 14  1  0  0  0  0
 13 23  1  0  0  0  0
 14 24  1  0  0  0  0
 15 16  2  0  0  0  0
 15 25  1  0  0  0  0
 16 26  1  0  0  0  0
M  END
> <PUBCHEM_COMPOUND_CID>
1910750

> <PUBCHEM_COMPOUND_CANONICALIZED>
1

> <PUBCHEM_CACTVS_COMPLEXITY>
306

> <PUBCHEM_CACTVS_HBOND_ACCEPTOR>
10

> <PUBCHEM_CACTVS_HBOND_DONOR>
4

> <PUBCHEM_CACTVS_ROTATABLE_BOND>
2

> <PUBCHEM_CACTVS_SUBSKEYS>
AAADccBzwAAAAAAAAAAAAAAAAAAAAAAAAAA8WIAAAAAAAAAB8AAAHAAQAAAADACBGwAxEIZIEACgAiJiJACCgAkgAKAJiCAgBJiIKKKAmRGEIAhogAIIiAcQgAAOQAAAAAAAAACAAAAAAAAAAAAAAAAAAA==

> <PUBCHEM_IUPAC_OPENEYE_NAME>
6-[4-(4,6-diamino-1,3,5-triazin-2-yl)phenyl]-1,3,5-triazine-2,4-diamine

> <PUBCHEM_IUPAC_CAS_NAME>
6-[4-(4,6-diamino-1,3,5-triazin-2-yl)phenyl]-1,3,5-triazine-2,4-diamine

> <PUBCHEM_IUPAC_NAME>
6-[4-(4,6-diamino-1,3,5-triazin-2-yl)phenyl]-1,3,5-triazine-2,4-diamine

> <PUBCHEM_IUPAC_SYSTEMATIC_NAME>
6-[4-[4,6-bis(azanyl)-1,3,5-triazin-2-yl]phenyl]-1,3,5-triazine-2,4-diamine

> <PUBCHEM_IUPAC_TRADITIONAL_NAME>
[4-amino-6-[4-(4,6-diamino-s-triazin-2-yl)phenyl]-s-triazin-2-yl]amine

> <PUBCHEM_IUPAC_INCHI>
InChI=1S/C12H12N10/c13-9-17-7(18-10(14)21-9)5-1-2-6(4-3-5)8-19-11(15)22-12(16)20-8/h1-4H,(H4,13,14,17,18,21)(H4,15,16,19,20,22)

> <PUBCHEM_IUPAC_INCHIKEY>
CZOKMCRBEJFLLS-UHFFFAOYSA-N

> <PUBCHEM_XLOGP3>
0.6

> <PUBCHEM_EXACT_MASS>
296.12464

> <PUBCHEM_MOLECULAR_FORMULA>
C12H12N10

> <PUBCHEM_MOLECULAR_WEIGHT>
296.29068

> <PUBCHEM_OPENEYE_CAN_SMILES>
C1=CC(=CC=C1C2=NC(=NC(=N2)N)N)C3=NC(=NC(=N3)N)N

> <PUBCHEM_OPENEYE_ISO_SMILES>
C1=CC(=CC=C1C2=NC(=NC(=N2)N)N)C3=NC(=NC(=N3)N)N

> <PUBCHEM_CACTVS_TPSA>
181

> <PUBCHEM_MONOISOTOPIC_WEIGHT>
296.12464

> <PUBCHEM_TOTAL_CHARGE>
0

> <PUBCHEM_HEAVY_ATOM_COUNT>
22

> <PUBCHEM_ATOM_DEF_STEREO_COUNT>
0

> <PUBCHEM_ATOM_UDEF_STEREO_COUNT>
0

> <PUBCHEM_BOND_DEF_STEREO_COUNT>
0

> <PUBCHEM_BOND_UDEF_STEREO_COUNT>
0

> <PUBCHEM_ISOTOPIC_ATOM_COUNT>
0

> <PUBCHEM_COMPONENT_COUNT>
1

> <PUBCHEM_CACTVS_TAUTO_COUNT>
15

> <PUBCHEM_COORDINATE_TYPE>
1
5
255

> <PUBCHEM_BONDANNOTATIONS>
1  18  8
1  20  8
11  13  8
11  15  8
12  14  8
12  16  8
13  14  8
15  16  8
2  17  8
2  19  8
3  18  8
3  22  8
4  17  8
4  21  8
5  19  8
5  21  8
6  20  8
6  22  8

$$$$
1917925
  -OEChem-12041209132D

 40 42  0     0  0  0  0  0  0999 V2000
    7.9244    0.6388    0.0000 O   0  0  0  0  0  0  0  0  0  0  0  0
    4.6783   -2.5398    0.0000 N   0  0  0  0  0  0  0  0  0  0  0  0
    6.2781    1.1769    0.0000 N   0  0  0  0  0  0  0  0  0  0  0  0
    4.6783   -0.9304    0.0000 C   0  0  0  0  0  0  0  0  0  0  0  0
    4.9889    0.0201    0.0000 C   0  0  0  0  0  0  0  0  0  0  0  0
    3.7320   -1.2351    0.0000 C   0  0  0  0  0  0  0  0  0  0  0  0
    3.7320   -2.2351    0.0000 C   0  0  0  0  0  0  0  0  0  0  0  0
    5.9674    0.2264    0.0000 C   0  0  0  0  0  0  0  0  0  0  0  0
    5.2619   -1.7351    0.0000 C   0  0  0  0  0  0  0  0  0  0  0  0
    2.8660   -0.7351    0.0000 C   0  0  0  0  0  0  0  0  0  0  0  0
    2.8660   -2.7351    0.0000 C   0  0  0  0  0  0  0  0  0  0  0  0
    2.0000   -1.2351    0.0000 C   0  0  0  0  0  0  0  0  0  0  0  0
    2.0000   -2.2351    0.0000 C   0  0  0  0  0  0  0  0  0  0  0  0
    7.2566    1.3831    0.0000 C   0  0  0  0  0  0  0  0  0  0  0  0
    7.5673    2.3336    0.0000 C   0  0  0  0  0  0  0  0  0  0  0  0
    8.5458    2.5398    0.0000 C   0  0  0  0  0  0  0  0  0  0  0  0
    9.2136    1.7955    0.0000 C   0  0  0  0  0  0  0  0  0  0  0  0
    8.9030    0.8450    0.0000 C   0  0  0  0  0  0  0  0  0  0  0  0
   10.1921    2.0018    0.0000 C   0  0  0  0  0  0  0  0  0  0  0  0
    9.5708    0.1007    0.0000 C   0  0  0  0  0  0  0  0  0  0  0  0
   10.8600    1.2575    0.0000 C   0  0  0  0  0  0  0  0  0  0  0  0
   10.5493    0.3069    0.0000 C   0  0  0  0  0  0  0  0  0  0  0  0
    4.9684    0.6398    0.0000 H   0  0  0  0  0  0  0  0  0  0  0  0
    4.3751    0.1075    0.0000 H   0  0  0  0  0  0  0  0  0  0  0  0
    5.9880   -0.3933    0.0000 H   0  0  0  0  0  0  0  0  0  0  0  0
    6.5812    0.1390    0.0000 H   0  0  0  0  0  0  0  0  0  0  0  0
    5.8819   -1.7351    0.0000 H   0  0  0  0  0  0  0  0  0  0  0  0
    4.8709   -3.1292    0.0000 H   0  0  0  0  0  0  0  0  0  0  0  0
    2.8660   -0.1151    0.0000 H   0  0  0  0  0  0  0  0  0  0  0  0
    2.8660   -3.3551    0.0000 H   0  0  0  0  0  0  0  0  0  0  0  0
    5.8640    1.6384    0.0000 H   0  0  0  0  0  0  0  0  0  0  0  0
    1.4631   -0.9251    0.0000 H   0  0  0  0  0  0  0  0  0  0  0  0
    1.4631   -2.5451    0.0000 H   0  0  0  0  0  0  0  0  0  0  0  0
    7.1532    2.7951    0.0000 H   0  0  0  0  0  0  0  0  0  0  0  0
    8.7384    3.1292    0.0000 H   0  0  0  0  0  0  0  0  0  0  0  0
    8.2963    0.7172    0.0000 H   0  0  0  0  0  0  0  0  0  0  0  0
   10.3847    2.5911    0.0000 H   0  0  0  0  0  0  0  0  0  0  0  0
    9.3782   -0.4886    0.0000 H   0  0  0  0  0  0  0  0  0  0  0  0
   11.4666    1.3853    0.0000 H   0  0  0  0  0  0  0  0  0  0  0  0
   10.9634   -0.1545    0.0000 H   0  0  0  0  0  0  0  0  0  0  0  0
  1 14  2  0  0  0  0
  2  7  1  0  0  0  0
  2  9  1  0  0  0  0
  2 28  1  0  0  0  0
  3  8  1  0  0  0  0
  3 14  1  0  0  0  0
  3 31  1  0  0  0  0
  4  5  1  0  0  0  0
  4  6  1  0  0  0  0
  4  9  2  0  0  0  0
  5  8  1  0  0  0  0
  5 23  1  0  0  0  0
  5 24  1  0  0  0  0
  6  7  1  0  0  0  0
  6 10  2  0  0  0  0
  7 11  2  0  0  0  0
  8 25  1  0  0  0  0
  8 26  1  0  0  0  0
  9 27  1  0  0  0  0
 10 12  1  0  0  0  0
 10 29  1  0  0  0  0
 11 13  1  0  0  0  0
 11 30  1  0  0  0  0
 12 13  2  0  0  0  0
 12 32  1  0  0  0  0
 13 33  1  0  0  0  0
 14 15  1  0  0  0  0
 15 16  2  0  0  0  0
 15 34  1  0  0  0  0
 16 17  1  0  0  0  0
 16 35  1  0  0  0  0
 17 18  2  0  0  0  0
 17 19  1  0  0  0  0
 18 20  1  0  0  0  0
 18 36  1  0  0  0  0
 19 21  2  0  0  0  0
 19 37  1  0  0  0  0
 20 22  2  0  0  0  0
 20 38  1  0  0  0  0
 21 22  1  0  0  0  0
 21 39  1  0  0  0  0
 22 40  1  0  0  0  0
M  END
> <PUBCHEM_COMPOUND_CID>
1917925

> <PUBCHEM_COMPOUND_CANONICALIZED>
1

> <PUBCHEM_CACTVS_COMPLEXITY>
387

> <PUBCHEM_CACTVS_HBOND_ACCEPTOR>
1

> <PUBCHEM_CACTVS_HBOND_DONOR>
2

> <PUBCHEM_CACTVS_ROTATABLE_BOND>
5

> <PUBCHEM_CACTVS_SUBSKEYS>
AAADceB7IAAAAAAAAAAAAAAAAAAAAWAAAAAwYAAAAAAAAFgB9AAAHgAQAAAADAjBngQ8wPLJkACoAzV3VACCgCAxAiAI2aA4ZNgIIOLAkZGEIAhglgDIyYcQgMAOgAAAAAACAAAAAAAAAAQAAAAAAAAAAA==

> <PUBCHEM_IUPAC_OPENEYE_NAME>
(Z)-N-[2-(1H-indol-3-yl)ethyl]-3-phenyl-prop-2-enamide

> <PUBCHEM_IUPAC_CAS_NAME>
(Z)-N-[2-(1H-indol-3-yl)ethyl]-3-phenyl-2-propenamide

> <PUBCHEM_IUPAC_NAME>
(Z)-N-[2-(1H-indol-3-yl)ethyl]-3-phenylprop-2-enamide

> <PUBCHEM_IUPAC_SYSTEMATIC_NAME>
(Z)-N-[2-(1H-indol-3-yl)ethyl]-3-phenyl-prop-2-enamide

> <PUBCHEM_IUPAC_TRADITIONAL_NAME>
(Z)-N-[2-(1H-indol-3-yl)ethyl]-3-phenyl-acrylamide

> <PUBCHEM_IUPAC_INCHI>
InChI=1S/C19H18N2O/c22-19(11-10-15-6-2-1-3-7-15)20-13-12-16-14-21-18-9-5-4-8-17(16)18/h1-11,14,21H,12-13H2,(H,20,22)/b11-10-

> <PUBCHEM_IUPAC_INCHIKEY>
YSNGDZDGGGVGHU-KHPPLWFESA-N

> <PUBCHEM_XLOGP3>
3.9

> <PUBCHEM_EXACT_MASS>
290.141913

> <PUBCHEM_MOLECULAR_FORMULA>
C19H18N2O

> <PUBCHEM_MOLECULAR_WEIGHT>
290.35902

> <PUBCHEM_OPENEYE_CAN_SMILES>
C1=CC=C(C=C1)C=CC(=O)NCCC2=CNC3=CC=CC=C32

> <PUBCHEM_OPENEYE_ISO_SMILES>
C1=CC=C(C=C1)/C=C\C(=O)NCCC2=CNC3=CC=CC=C32

> <PUBCHEM_CACTVS_TPSA>
44.9

> <PUBCHEM_MONOISOTOPIC_WEIGHT>
290.141913

> <PUBCHEM_TOTAL_CHARGE>
0

> <PUBCHEM_HEAVY_ATOM_COUNT>
22

> <PUBCHEM_ATOM_DEF_STEREO_COUNT>
0

> <PUBCHEM_ATOM_UDEF_STEREO_COUNT>
0

> <PUBCHEM_BOND_DEF_STEREO_COUNT>
1

> <PUBCHEM_BOND_UDEF_STEREO_COUNT>
0

> <PUBCHEM_ISOTOPIC_ATOM_COUNT>
0

> <PUBCHEM_COMPONENT_COUNT>
1

> <PUBCHEM_CACTVS_TAUTO_COUNT>
2

> <PUBCHEM_COORDINATE_TYPE>
1
5
255

> <PUBCHEM_BONDANNOTATIONS>
10  12  8
11  13  8
12  13  8
17  18  8
17  19  8
18  20  8
19  21  8
2  7  8
2  9  8
20  22  8
21  22  8
4  6  8
4  9  8
6  10  8
6  7  8
7  11  8

$$$$
1918328
  -OEChem-12041209132D

 51 54  0     0  0  0  0  0  0999 V2000
    7.8685    0.6843    0.0000 N   0  3  0  0  0  0  0  0  0  0  0  0
    5.9674    1.3056    0.0000 N   0  3  0  0  0  0  0  0  0  0  0  0
    4.6783   -1.4606    0.0000 N   0  0  0  0  0  0  0  0  0  0  0  0
    8.8470    0.8905    0.0000 C   0  0  0  0  0  0  0  0  0  0  0  0
    7.6623    1.6628    0.0000 C   0  0  0  0  0  0  0  0  0  0  0  0
    7.1242    0.0164    0.0000 C   0  0  0  0  0  0  0  0  0  0  0  0
    6.1737    0.3271    0.0000 C   0  0  0  0  0  0  0  0  0  0  0  0
    6.7117    1.9735    0.0000 C   0  0  0  0  0  0  0  0  0  0  0  0
    9.5148    0.1462    0.0000 C   0  0  0  0  0  0  0  0  0  0  0  0
    9.1576    1.8410    0.0000 C   0  0  0  0  0  0  0  0  0  0  0  0
   10.1362    2.0472    0.0000 C   0  0  0  0  0  0  0  0  0  0  0  0
   10.4933    0.3524    0.0000 C   0  0  0  0  0  0  0  0  0  0  0  0
   10.8040    1.3029    0.0000 C   0  0  0  0  0  0  0  0  0  0  0  0
    4.9889    1.0994    0.0000 C   0  0  0  0  0  0  0  0  0  0  0  0
    4.6783    0.1489    0.0000 C   0  0  0  0  0  0  0  0  0  0  0  0
    3.7320   -0.1559    0.0000 C   0  0  0  0  0  0  0  0  0  0  0  0
    5.2619   -0.6559    0.0000 C   0  0  0  0  0  0  0  0  0  0  0  0
    3.7320   -1.1559    0.0000 C   0  0  0  0  0  0  0  0  0  0  0  0
    2.8660    0.3441    0.0000 C   0  0  0  0  0  0  0  0  0  0  0  0
    2.8660   -1.6559    0.0000 C   0  0  0  0  0  0  0  0  0  0  0  0
    2.0000   -0.1559    0.0000 C   0  0  0  0  0  0  0  0  0  0  0  0
    2.0000   -1.1559    0.0000 C   0  0  0  0  0  0  0  0  0  0  0  0
    8.2825    0.2228    0.0000 H   0  0  0  0  0  0  0  0  0  0  0  0
    8.4329    1.3520    0.0000 H   0  0  0  0  0  0  0  0  0  0  0  0
    6.8322   -0.5305    0.0000 H   0  0  0  0  0  0  0  0  0  0  0  0
    7.6121   -0.3661    0.0000 H   0  0  0  0  0  0  0  0  0  0  0  0
    8.2819    1.6834    0.0000 H   0  0  0  0  0  0  0  0  0  0  0  0
    7.7496    2.2766    0.0000 H   0  0  0  0  0  0  0  0  0  0  0  0
    5.2996    2.0499    0.0000 H   0  0  0  0  0  0  0  0  0  0  0  0
    5.5540    0.3065    0.0000 H   0  0  0  0  0  0  0  0  0  0  0  0
    6.0863   -0.2867    0.0000 H   0  0  0  0  0  0  0  0  0  0  0  0
    7.0038    2.5204    0.0000 H   0  0  0  0  0  0  0  0  0  0  0  0
    6.2238    2.3560    0.0000 H   0  0  0  0  0  0  0  0  0  0  0  0
    9.1371    2.4607    0.0000 H   0  0  0  0  0  0  0  0  0  0  0  0
    8.5438    1.9284    0.0000 H   0  0  0  0  0  0  0  0  0  0  0  0
    8.9885   -0.1814    0.0000 H   0  0  0  0  0  0  0  0  0  0  0  0
    9.7461   -0.4290    0.0000 H   0  0  0  0  0  0  0  0  0  0  0  0
   10.6625    2.3749    0.0000 H   0  0  0  0  0  0  0  0  0  0  0  0
    9.9049    2.6225    0.0000 H   0  0  0  0  0  0  0  0  0  0  0  0
   10.5139   -0.2672    0.0000 H   0  0  0  0  0  0  0  0  0  0  0  0
   11.1072    0.2651    0.0000 H   0  0  0  0  0  0  0  0  0  0  0  0
   11.3509    1.0109    0.0000 H   0  0  0  0  0  0  0  0  0  0  0  0
   11.1866    1.7908    0.0000 H   0  0  0  0  0  0  0  0  0  0  0  0
    4.9684    1.7190    0.0000 H   0  0  0  0  0  0  0  0  0  0  0  0
    4.3751    1.1867    0.0000 H   0  0  0  0  0  0  0  0  0  0  0  0
    5.8819   -0.6559    0.0000 H   0  0  0  0  0  0  0  0  0  0  0  0
    4.8709   -2.0499    0.0000 H   0  0  0  0  0  0  0  0  0  0  0  0
    2.8660    0.9641    0.0000 H   0  0  0  0  0  0  0  0  0  0  0  0
    2.8660   -2.2759    0.0000 H   0  0  0  0  0  0  0  0  0  0  0  0
    1.4631    0.1541    0.0000 H   0  0  0  0  0  0  0  0  0  0  0  0
    1.4631   -1.4659    0.0000 H   0  0  0  0  0  0  0  0  0  0  0  0
  1  4  1  0  0  0  0
  1  5  1  0  0  0  0
  1  6  1  0  0  0  0
  1 23  1  0  0  0  0
  2  7  1  0  0  0  0
  2  8  1  0  0  0  0
  2 14  1  0  0  0  0
  2 29  1  0  0  0  0
  3 17  1  0  0  0  0
  3 18  1  0  0  0  0
  3 47  1  0  0  0  0
  4  9  1  0  0  0  0
  4 10  1  0  0  0  0
  4 24  1  0  0  0  0
  5  8  1  0  0  0  0
  5 27  1  0  0  0  0
  5 28  1  0  0  0  0
  6  7  1  0  0  0  0
  6 25  1  0  0  0  0
  6 26  1  0  0  0  0
  7 30  1  0  0  0  0
  7 31  1  0  0  0  0
  8 32  1  0  0  0  0
  8 33  1  0  0  0  0
  9 12  1  0  0  0  0
  9 36  1  0  0  0  0
  9 37  1  0  0  0  0
 10 11  1  0  0  0  0
 10 34  1  0  0  0  0
 10 35  1  0  0  0  0
 11 13  1  0  0  0  0
 11 38  1  0  0  0  0
 11 39  1  0  0  0  0
 12 13  1  0  0  0  0
 12 40  1  0  0  0  0
 12 41  1  0  0  0  0
 13 42  1  0  0  0  0
 13 43  1  0  0  0  0
 14 15  1  0  0  0  0
 14 44  1  0  0  0  0
 14 45  1  0  0  0  0
 15 16  1  0  0  0  0
 15 17  2  0  0  0  0
 16 18  1  0  0  0  0
 16 19  2  0  0  0  0
 17 46  1  0  0  0  0
 18 20  2  0  0  0  0
 19 21  1  0  0  0  0
 19 48  1  0  0  0  0
 20 22  1  0  0  0  0
 20 49  1  0  0  0  0
 21 22  2  0  0  0  0
 21 50  1  0  0  0  0
 22 51  1  0  0  0  0
M  CHG  2   1   1   2   1
M  END
> <PUBCHEM_COMPOUND_CID>
1918328

> <PUBCHEM_COMPOUND_CANONICALIZED>
1

> <PUBCHEM_CACTVS_COMPLEXITY>
345

> <PUBCHEM_CACTVS_HBOND_ACCEPTOR>
0

> <PUBCHEM_CACTVS_HBOND_DONOR>
3

> <PUBCHEM_CACTVS_ROTATABLE_BOND>
3

> <PUBCHEM_CACTVS_SUBSKEYS>
AAADceB7AAAAAAAAAAAAAAAAAAAAAWAAAAA8YIAAAAAAAFgB8AAAHAAQAAAADCjBHgQ8wPPJkACgAzRnRACCgCAxAiAI2aA4ZJgIYOLA0ZGUIAhgkADIyAcQgMAOgAAAAAACAAAAAAAAAAQAAAAAAAAAAA==

> <PUBCHEM_IUPAC_OPENEYE_NAME>
3-[(4-cyclohexylpiperazine-1,4-diium-1-yl)methyl]-1H-indole

> <PUBCHEM_IUPAC_CAS_NAME>
3-[(4-cyclohexyl-1-piperazine-1,4-diiumyl)methyl]-1H-indole

> <PUBCHEM_IUPAC_NAME>
3-[(4-cyclohexylpiperazine-1,4-diium-1-yl)methyl]-1H-indole

> <PUBCHEM_IUPAC_SYSTEMATIC_NAME>
3-[(4-cyclohexylpiperazine-1,4-diium-1-yl)methyl]-1H-indole

> <PUBCHEM_IUPAC_TRADITIONAL_NAME>
3-[(4-cyclohexylpiperazine-1,4-diium-1-yl)methyl]-1H-indole

> <PUBCHEM_IUPAC_INCHI>
InChI=1S/C19H27N3/c1-2-6-17(7-3-1)22-12-10-21(11-13-22)15-16-14-20-19-9-5-4-8-18(16)19/h4-5,8-9,14,17,20H,1-3,6-7,10-13,15H2/p+2

> <PUBCHEM_IUPAC_INCHIKEY>
KVMYQZWTIVDKIK-UHFFFAOYSA-P

> <PUBCHEM_XLOGP3>
3.4

> <PUBCHEM_EXACT_MASS>
299.236148

> <PUBCHEM_MOLECULAR_FORMULA>
C19H29N3+2

> <PUBCHEM_MOLECULAR_WEIGHT>
299.45366

> <PUBCHEM_OPENEYE_CAN_SMILES>
C1CCC(CC1)[NH+]2CC[NH+](CC2)CC3=CNC4=CC=CC=C43

> <PUBCHEM_OPENEYE_ISO_SMILES>
C1CCC(CC1)[NH+]2CC[NH+](CC2)CC3=CNC4=CC=CC=C43

> <PUBCHEM_CACTVS_TPSA>
24.7

> <PUBCHEM_MONOISOTOPIC_WEIGHT>
299.236148

> <PUBCHEM_TOTAL_CHARGE>
2

> <PUBCHEM_HEAVY_ATOM_COUNT>
22

> <PUBCHEM_ATOM_DEF_STEREO_COUNT>
0

> <PUBCHEM_ATOM_UDEF_STEREO_COUNT>
0

> <PUBCHEM_BOND_DEF_STEREO_COUNT>
0

> <PUBCHEM_BOND_UDEF_STEREO_COUNT>
0

> <PUBCHEM_ISOTOPIC_ATOM_COUNT>
0

> <PUBCHEM_COMPONENT_COUNT>
1

> <PUBCHEM_CACTVS_TAUTO_COUNT>
1

> <PUBCHEM_COORDINATE_TYPE>
1
5
255

> <PUBCHEM_BONDANNOTATIONS>
15  16  8
15  17  8
16  18  8
16  19  8
18  20  8
19  21  8
20  22  8
21  22  8
3  17  8
3  18  8

$$$$
1920027
  -OEChem-12041209132D

 28 28  0     0  0  0  0  0  0999 V2000
    7.0010    0.7500    0.0000 F   0  0  0  0  0  0  0  0  0  0  0  0
    5.0010    0.7500    0.0000 F   0  0  0  0  0  0  0  0  0  0  0  0
    7.0010    1.7500    0.0000 F   0  0  0  0  0  0  0  0  0  0  0  0
    5.0010    1.7500    0.0000 F   0  0  0  0  0  0  0  0  0  0  0  0
    6.0010    3.7500    0.0000 F   0  0  0  0  0  0  0  0  0  0  0  0
    7.0010    2.7500    0.0000 F   0  0  0  0  0  0  0  0  0  0  0  0
    5.0010    2.7500    0.0000 F   0  0  0  0  0  0  0  0  0  0  0  0
    6.8671   -0.7500    0.0000 O   0  0  0  0  0  0  0  0  0  0  0  0
    2.5369   -2.2500    0.0000 O   0  0  0  0  0  0  0  0  0  0  0  0
    3.4030   -0.7500    0.0000 O   0  0  0  0  0  0  0  0  0  0  0  0
    5.1350   -0.7500    0.0000 N   0  0  0  0  0  0  0  0  0  0  0  0
    6.0010    0.7500    0.0000 C   0  0  0  0  0  0  0  0  0  0  0  0
    6.0010    1.7500    0.0000 C   0  0  0  0  0  0  0  0  0  0  0  0
    6.0010   -0.2500    0.0000 C   0  0  0  0  0  0  0  0  0  0  0  0
    6.0010    2.7500    0.0000 C   0  0  0  0  0  0  0  0  0  0  0  0
    5.1350   -1.7500    0.0000 C   0  0  0  0  0  0  0  0  0  0  0  0
    4.2690   -2.2500    0.0000 C   0  0  0  0  0  0  0  0  0  0  0  0
    6.0010   -2.2500    0.0000 C   0  0  0  0  0  0  0  0  0  0  0  0
    4.2690   -3.2500    0.0000 C   0  0  0  0  0  0  0  0  0  0  0  0
    6.0010   -3.2500    0.0000 C   0  0  0  0  0  0  0  0  0  0  0  0
    5.1350   -3.7500    0.0000 C   0  0  0  0  0  0  0  0  0  0  0  0
    3.4030   -1.7500    0.0000 C   0  0  0  0  0  0  0  0  0  0  0  0
    4.5981   -0.4400    0.0000 H   0  0  0  0  0  0  0  0  0  0  0  0
    6.5380   -1.9400    0.0000 H   0  0  0  0  0  0  0  0  0  0  0  0
    3.7320   -3.5600    0.0000 H   0  0  0  0  0  0  0  0  0  0  0  0
    6.5380   -3.5600    0.0000 H   0  0  0  0  0  0  0  0  0  0  0  0
    5.1350   -4.3700    0.0000 H   0  0  0  0  0  0  0  0  0  0  0  0
    2.0000   -1.9400    0.0000 H   0  0  0  0  0  0  0  0  0  0  0  0
  1 12  1  0  0  0  0
  2 12  1  0  0  0  0
  3 13  1  0  0  0  0
  4 13  1  0  0  0  0
  5 15  1  0  0  0  0
  6 15  1  0  0  0  0
  7 15  1  0  0  0  0
  8 14  2  0  0  0  0
  9 22  1  0  0  0  0
  9 28  1  0  0  0  0
 10 22  2  0  0  0  0
 11 14  1  0  0  0  0
 11 16  1  0  0  0  0
 11 23  1  0  0  0  0
 12 13  1  0  0  0  0
 12 14  1  0  0  0  0
 13 15  1  0  0  0  0
 16 17  1  0  0  0  0
 16 18  2  0  0  0  0
 17 19  2  0  0  0  0
 17 22  1  0  0  0  0
 18 20  1  0  0  0  0
 18 24  1  0  0  0  0
 19 21  1  0  0  0  0
 19 25  1  0  0  0  0
 20 21  2  0  0  0  0
 20 26  1  0  0  0  0
 21 27  1  0  0  0  0
M  END
> <PUBCHEM_COMPOUND_CID>
1920027

> <PUBCHEM_COMPOUND_CANONICALIZED>
1

> <PUBCHEM_CACTVS_COMPLEXITY>
450

> <PUBCHEM_CACTVS_HBOND_ACCEPTOR>
10

> <PUBCHEM_CACTVS_HBOND_DONOR>
2

> <PUBCHEM_CACTVS_ROTATABLE_BOND>
4

> <PUBCHEM_CACTVS_SUBSKEYS>
AAADcYByMcAAAAAAAAAAAAAAAAAAAAAAAAAwAAAAAAAAAAABAAAAHwAQCAAADAiBmBAwyILAAgCIAiXSWACCAAAlAgAIiAEAbMgIJjrAlZGEcYhm1AHI2ceYyCCOAAAAAAACAAAAAAAAAAQAAAAAAAAAAA==

> <PUBCHEM_IUPAC_OPENEYE_NAME>
2-(2,2,3,3,4,4,4-heptafluorobutanoylamino)benzoic acid

> <PUBCHEM_IUPAC_CAS_NAME>
2-[(2,2,3,3,4,4,4-heptafluoro-1-oxobutyl)amino]benzoic acid

> <PUBCHEM_IUPAC_NAME>
2-(2,2,3,3,4,4,4-heptafluorobutanoylamino)benzoic acid

> <PUBCHEM_IUPAC_SYSTEMATIC_NAME>
2-[2,2,3,3,4,4,4-heptakis(fluoranyl)butanoylamino]benzoic acid

> <PUBCHEM_IUPAC_TRADITIONAL_NAME>
2-(2,2,3,3,4,4,4-heptafluorobutanoylamino)benzoic acid

> <PUBCHEM_IUPAC_INCHI>
InChI=1S/C11H6F7NO3/c12-9(13,10(14,15)11(16,17)18)8(22)19-6-4-2-1-3-5(6)7(20)21/h1-4H,(H,19,22)(H,20,21)

> <PUBCHEM_IUPAC_INCHIKEY>
JEZNKLYJYJESLE-UHFFFAOYSA-N

> <PUBCHEM_XLOGP3>
4.3

> <PUBCHEM_EXACT_MASS>
333.023591

> <PUBCHEM_MOLECULAR_FORMULA>
C11H6F7NO3

> <PUBCHEM_MOLECULAR_WEIGHT>
333.159062

> <PUBCHEM_OPENEYE_CAN_SMILES>
C1=CC=C(C(=C1)C(=O)O)NC(=O)C(C(C(F)(F)F)(F)F)(F)F

> <PUBCHEM_OPENEYE_ISO_SMILES>
C1=CC=C(C(=C1)C(=O)O)NC(=O)C(C(C(F)(F)F)(F)F)(F)F

> <PUBCHEM_CACTVS_TPSA>
66.4

> <PUBCHEM_MONOISOTOPIC_WEIGHT>
333.023591

> <PUBCHEM_TOTAL_CHARGE>
0

> <PUBCHEM_HEAVY_ATOM_COUNT>
22

> <PUBCHEM_ATOM_DEF_STEREO_COUNT>
0

> <PUBCHEM_ATOM_UDEF_STEREO_COUNT>
0

> <PUBCHEM_BOND_DEF_STEREO_COUNT>
0

> <PUBCHEM_BOND_UDEF_STEREO_COUNT>
0

> <PUBCHEM_ISOTOPIC_ATOM_COUNT>
0

> <PUBCHEM_COMPONENT_COUNT>
1

> <PUBCHEM_CACTVS_TAUTO_COUNT>
5

> <PUBCHEM_COORDINATE_TYPE>
1
5
255

> <PUBCHEM_BONDANNOTATIONS>
16  17  8
16  18  8
17  19  8
18  20  8
19  21  8
20  21  8

$$$$
