42530733
  -OEChem-11301217502D

 44 46  0     1  0  0  0  0  0999 V2000
    4.4026    1.1580    0.0000 O   0  0  0  0  0  0  0  0  0  0  0  0
    6.7485    0.0662    0.0000 O   0  0  0  0  0  0  0  0  0  0  0  0
    6.7523    2.2418    0.0000 O   0  0  0  0  0  0  0  0  0  0  0  0
    3.7066    3.1272    0.0000 O   0  0  0  0  0  0  0  0  0  0  0  0
    8.2619   -3.1393    0.0000 O   0  0  0  0  0  0  0  0  0  0  0  0
    4.6783   -0.6025    0.0000 N   0  0  0  0  0  0  0  0  0  0  0  0
    4.6783   -2.2120    0.0000 N   0  0  0  0  0  0  0  0  0  0  0  0
    6.2619   -1.4072    0.0000 N   0  0  0  0  0  0  0  0  0  0  0  0
    2.8660   -0.4072    0.0000 N   0  0  0  0  0  0  0  0  0  0  0  0
    2.0000   -1.9072    0.0000 N   0  0  0  0  0  0  0  0  0  0  0  0
    2.8660   -3.4072    0.0000 N   0  0  0  0  0  0  0  0  0  0  0  0
    4.9889    0.3480    0.0000 C   0  0  1  0  0  0  0  0  0  0  0  0
    5.9405    0.6554    0.0000 C   0  0  2  0  0  0  0  0  0  0  0  0
    5.9422    1.6554    0.0000 C   0  0  1  0  0  0  0  0  0  0  0  0
    4.9917    1.9660    0.0000 C   0  0  1  0  0  0  0  0  0  0  0  0
    4.6844    2.9176    0.0000 C   0  0  0  0  0  0  0  0  0  0  0  0
    5.2619   -1.4072    0.0000 C   0  0  0  0  0  0  0  0  0  0  0  0
    3.7320   -0.9072    0.0000 C   0  0  0  0  0  0  0  0  0  0  0  0
    3.7320   -1.9072    0.0000 C   0  0  0  0  0  0  0  0  0  0  0  0
    2.8660   -2.4072    0.0000 C   0  0  0  0  0  0  0  0  0  0  0  0
    6.7619   -2.2733    0.0000 C   0  0  0  0  0  0  0  0  0  0  0  0
    2.0000   -0.9072    0.0000 C   0  0  0  0  0  0  0  0  0  0  0  0
    7.7619   -2.2733    0.0000 C   0  0  0  0  0  0  0  0  0  0  0  0
    9.2619   -3.1393    0.0000 C   0  0  0  0  0  0  0  0  0  0  0  0
    5.4266   -0.0911    0.0000 H   0  0  0  0  0  0  0  0  0  0  0  0
    6.4934    0.9359    0.0000 H   0  0  0  0  0  0  0  0  0  0  0  0
    5.8463    2.2679    0.0000 H   0  0  0  0  0  0  0  0  0  0  0  0
    4.3795    2.0641    0.0000 H   0  0  0  0  0  0  0  0  0  0  0  0
    5.2985    3.0029    0.0000 H   0  0  0  0  0  0  0  0  0  0  0  0
    4.7071    3.5372    0.0000 H   0  0  0  0  0  0  0  0  0  0  0  0
    7.3154    0.3174    0.0000 H   0  0  0  0  0  0  0  0  0  0  0  0
    6.6886    2.8585    0.0000 H   0  0  0  0  0  0  0  0  0  0  0  0
    6.5719   -0.8703    0.0000 H   0  0  0  0  0  0  0  0  0  0  0  0
    3.5160    3.7172    0.0000 H   0  0  0  0  0  0  0  0  0  0  0  0
    6.1793   -2.4853    0.0000 H   0  0  0  0  0  0  0  0  0  0  0  0
    6.8695   -2.8838    0.0000 H   0  0  0  0  0  0  0  0  0  0  0  0
    1.4631   -0.5972    0.0000 H   0  0  0  0  0  0  0  0  0  0  0  0
    8.3445   -2.0612    0.0000 H   0  0  0  0  0  0  0  0  0  0  0  0
    7.6542   -1.6627    0.0000 H   0  0  0  0  0  0  0  0  0  0  0  0
    2.3291   -3.7172    0.0000 H   0  0  0  0  0  0  0  0  0  0  0  0
    3.4030   -3.7172    0.0000 H   0  0  0  0  0  0  0  0  0  0  0  0
    9.2619   -3.7593    0.0000 H   0  0  0  0  0  0  0  0  0  0  0  0
    9.8819   -3.1393    0.0000 H   0  0  0  0  0  0  0  0  0  0  0  0
    9.2619   -2.5193    0.0000 H   0  0  0  0  0  0  0  0  0  0  0  0
  1 12  1  0  0  0  0
  1 15  1  0  0  0  0
 13  2  1  6  0  0  0
  2 31  1  0  0  0  0
 14  3  1  1  0  0  0
  3 32  1  0  0  0  0
  4 16  1  0  0  0  0
  4 34  1  0  0  0  0
  5 23  1  0  0  0  0
  5 24  1  0  0  0  0
 12  6  1  6  0  0  0
  6 17  1  0  0  0  0
  6 18  1  0  0  0  0
  7 17  2  0  0  0  0
  7 19  1  0  0  0  0
  8 17  1  0  0  0  0
  8 21  1  0  0  0  0
  8 33  1  0  0  0  0
  9 18  2  0  0  0  0
  9 22  1  0  0  0  0
 10 20  1  0  0  0  0
 10 22  2  0  0  0  0
 11 20  1  0  0  0  0
 11 40  1  0  0  0  0
 11 41  1  0  0  0  0
 12 13  1  0  0  0  0
 12 25  1  0  0  0  0
 13 14  1  0  0  0  0
 13 26  1  0  0  0  0
 14 15  1  0  0  0  0
 14 27  1  0  0  0  0
 15 16  1  6  0  0  0
 15 28  1  0  0  0  0
 16 29  1  0  0  0  0
 16 30  1  0  0  0  0
 18 19  1  0  0  0  0
 19 20  2  0  0  0  0
 21 23  1  0  0  0  0
 21 35  1  0  0  0  0
 21 36  1  0  0  0  0
 22 37  1  0  0  0  0
 23 38  1  0  0  0  0
 23 39  1  0  0  0  0
 24 42  1  0  0  0  0
 24 43  1  0  0  0  0
 24 44  1  0  0  0  0
M  END
> <PUBCHEM_COMPOUND_CID>
42530733

> <PUBCHEM_COMPOUND_CANONICALIZED>
1

> <PUBCHEM_CACTVS_COMPLEXITY>
420

> <PUBCHEM_CACTVS_HBOND_ACCEPTOR>
10

> <PUBCHEM_CACTVS_HBOND_DONOR>
5

> <PUBCHEM_CACTVS_ROTATABLE_BOND>
6

> <PUBCHEM_CACTVS_SUBSKEYS>
AAADceBzuAAAAAAAAAAAAAAAAAAAAWJAAAAsAAAAAAAAAFgB+AAAHgAQCAAACBzhlwYH8L/MFgCgAQZhZACAgC0REKABUKAoVBCDWAJAyEAfRAgPEALTACDwMAIAAAAAAAAAAAAAAAAAAAAAAAAAAAAAAA==

> <PUBCHEM_IUPAC_OPENEYE_NAME>
(2R,3S,4S,5R)-2-[6-amino-8-(2-methoxyethylamino)purin-9-yl]-5-(hydroxymethyl)tetrahydrofuran-3,4-diol

> <PUBCHEM_IUPAC_CAS_NAME>
(2R,3S,4S,5R)-2-[6-amino-8-(2-methoxyethylamino)-9-purinyl]-5-(hydroxymethyl)oxolane-3,4-diol

> <PUBCHEM_IUPAC_NAME>
(2R,3S,4S,5R)-2-[6-amino-8-(2-methoxyethylamino)purin-9-yl]-5-(hydroxymethyl)oxolane-3,4-diol

> <PUBCHEM_IUPAC_SYSTEMATIC_NAME>
(2R,3S,4S,5R)-2-[6-azanyl-8-(2-methoxyethylamino)purin-9-yl]-5-(hydroxymethyl)oxolane-3,4-diol

> <PUBCHEM_IUPAC_TRADITIONAL_NAME>
(2R,3S,4S,5R)-2-[6-amino-8-(2-methoxyethylamino)purin-9-yl]-5-methylol-tetrahydrofuran-3,4-diol

> <PUBCHEM_IUPAC_INCHI>
InChI=1S/C13H20N6O5/c1-23-3-2-15-13-18-7-10(14)16-5-17-11(7)19(13)12-9(22)8(21)6(4-20)24-12/h5-6,8-9,12,20-22H,2-4H2,1H3,(H,15,18)(H2,14,16,17)/t6-,8-,9+,12-/m1/s1

> <PUBCHEM_IUPAC_INCHIKEY>
AWXXUJPQAZFVOC-QRKAXHLRSA-N

> <PUBCHEM_XLOGP3>
-0.9

> <PUBCHEM_EXACT_MASS>
340.149518

> <PUBCHEM_MOLECULAR_FORMULA>
C13H20N6O5

> <PUBCHEM_MOLECULAR_WEIGHT>
340.3351

> <PUBCHEM_OPENEYE_CAN_SMILES>
COCCNC1=NC2=C(N1C3C(C(C(O3)CO)O)O)N=CN=C2N

> <PUBCHEM_OPENEYE_ISO_SMILES>
COCCNC1=NC2=C(N1[C@H]3[C@H]([C@@H]([C@H](O3)CO)O)O)N=CN=C2N

> <PUBCHEM_CACTVS_TPSA>
161

> <PUBCHEM_MONOISOTOPIC_WEIGHT>
340.149518

> <PUBCHEM_TOTAL_CHARGE>
0

> <PUBCHEM_HEAVY_ATOM_COUNT>
24

> <PUBCHEM_ATOM_DEF_STEREO_COUNT>
4

> <PUBCHEM_ATOM_UDEF_STEREO_COUNT>
0

> <PUBCHEM_BOND_DEF_STEREO_COUNT>
0

> <PUBCHEM_BOND_UDEF_STEREO_COUNT>
0

> <PUBCHEM_ISOTOPIC_ATOM_COUNT>
0

> <PUBCHEM_COMPONENT_COUNT>
1

> <PUBCHEM_CACTVS_TAUTO_COUNT>
6

> <PUBCHEM_COORDINATE_TYPE>
1
5
255

> <PUBCHEM_BONDANNOTATIONS>
10  20  8
10  22  8
15  16  6
18  19  8
19  20  8
13  2  6
14  3  5
12  6  6
6  17  8
6  18  8
7  17  8
7  19  8
9  18  8
9  22  8

$$$$
42530734
  -OEChem-11301217502D

 44 46  0     1  0  0  0  0  0999 V2000
    4.4026    1.1580    0.0000 O   0  0  0  0  0  0  0  0  0  0  0  0
    6.7485    0.0662    0.0000 O   0  0  0  0  0  0  0  0  0  0  0  0
    6.7523    2.2418    0.0000 O   0  0  0  0  0  0  0  0  0  0  0  0
    3.7066    3.1272    0.0000 O   0  0  0  0  0  0  0  0  0  0  0  0
    8.2619   -3.1393    0.0000 O   0  0  0  0  0  0  0  0  0  0  0  0
    4.6783   -0.6025    0.0000 N   0  0  0  0  0  0  0  0  0  0  0  0
    4.6783   -2.2120    0.0000 N   0  0  0  0  0  0  0  0  0  0  0  0
    6.2619   -1.4072    0.0000 N   0  0  0  0  0  0  0  0  0  0  0  0
    2.8660   -0.4072    0.0000 N   0  0  0  0  0  0  0  0  0  0  0  0
    2.0000   -1.9072    0.0000 N   0  0  0  0  0  0  0  0  0  0  0  0
    2.8660   -3.4072    0.0000 N   0  0  0  0  0  0  0  0  0  0  0  0
    4.9889    0.3480    0.0000 C   0  0  2  0  0  0  0  0  0  0  0  0
    5.9405    0.6554    0.0000 C   0  0  2  0  0  0  0  0  0  0  0  0
    5.9422    1.6554    0.0000 C   0  0  1  0  0  0  0  0  0  0  0  0
    4.9917    1.9660    0.0000 C   0  0  1  0  0  0  0  0  0  0  0  0
    4.6844    2.9176    0.0000 C   0  0  0  0  0  0  0  0  0  0  0  0
    5.2619   -1.4072    0.0000 C   0  0  0  0  0  0  0  0  0  0  0  0
    3.7320   -0.9072    0.0000 C   0  0  0  0  0  0  0  0  0  0  0  0
    3.7320   -1.9072    0.0000 C   0  0  0  0  0  0  0  0  0  0  0  0
    2.8660   -2.4072    0.0000 C   0  0  0  0  0  0  0  0  0  0  0  0
    6.7619   -2.2733    0.0000 C   0  0  0  0  0  0  0  0  0  0  0  0
    2.0000   -0.9072    0.0000 C   0  0  0  0  0  0  0  0  0  0  0  0
    7.7619   -2.2733    0.0000 C   0  0  0  0  0  0  0  0  0  0  0  0
    9.2619   -3.1393    0.0000 C   0  0  0  0  0  0  0  0  0  0  0  0
    5.4266   -0.0911    0.0000 H   0  0  0  0  0  0  0  0  0  0  0  0
    6.4934    0.9359    0.0000 H   0  0  0  0  0  0  0  0  0  0  0  0
    5.8463    2.2679    0.0000 H   0  0  0  0  0  0  0  0  0  0  0  0
    4.3795    2.0641    0.0000 H   0  0  0  0  0  0  0  0  0  0  0  0
    5.2985    3.0029    0.0000 H   0  0  0  0  0  0  0  0  0  0  0  0
    4.7071    3.5372    0.0000 H   0  0  0  0  0  0  0  0  0  0  0  0
    7.3154    0.3174    0.0000 H   0  0  0  0  0  0  0  0  0  0  0  0
    6.6886    2.8585    0.0000 H   0  0  0  0  0  0  0  0  0  0  0  0
    6.5719   -0.8703    0.0000 H   0  0  0  0  0  0  0  0  0  0  0  0
    3.5160    3.7172    0.0000 H   0  0  0  0  0  0  0  0  0  0  0  0
    6.1793   -2.4853    0.0000 H   0  0  0  0  0  0  0  0  0  0  0  0
    6.8695   -2.8838    0.0000 H   0  0  0  0  0  0  0  0  0  0  0  0
    1.4631   -0.5972    0.0000 H   0  0  0  0  0  0  0  0  0  0  0  0
    8.3445   -2.0612    0.0000 H   0  0  0  0  0  0  0  0  0  0  0  0
    7.6542   -1.6627    0.0000 H   0  0  0  0  0  0  0  0  0  0  0  0
    2.3291   -3.7172    0.0000 H   0  0  0  0  0  0  0  0  0  0  0  0
    3.4030   -3.7172    0.0000 H   0  0  0  0  0  0  0  0  0  0  0  0
    9.2619   -3.7593    0.0000 H   0  0  0  0  0  0  0  0  0  0  0  0
    9.8819   -3.1393    0.0000 H   0  0  0  0  0  0  0  0  0  0  0  0
    9.2619   -2.5193    0.0000 H   0  0  0  0  0  0  0  0  0  0  0  0
  1 12  1  0  0  0  0
  1 15  1  0  0  0  0
 13  2  1  6  0  0  0
  2 31  1  0  0  0  0
 14  3  1  1  0  0  0
  3 32  1  0  0  0  0
  4 16  1  0  0  0  0
  4 34  1  0  0  0  0
  5 23  1  0  0  0  0
  5 24  1  0  0  0  0
 12  6  1  1  0  0  0
  6 17  1  0  0  0  0
  6 18  1  0  0  0  0
  7 17  2  0  0  0  0
  7 19  1  0  0  0  0
  8 17  1  0  0  0  0
  8 21  1  0  0  0  0
  8 33  1  0  0  0  0
  9 18  2  0  0  0  0
  9 22  1  0  0  0  0
 10 20  1  0  0  0  0
 10 22  2  0  0  0  0
 11 20  1  0  0  0  0
 11 40  1  0  0  0  0
 11 41  1  0  0  0  0
 12 13  1  0  0  0  0
 12 25  1  0  0  0  0
 13 14  1  0  0  0  0
 13 26  1  0  0  0  0
 14 15  1  0  0  0  0
 14 27  1  0  0  0  0
 15 16  1  6  0  0  0
 15 28  1  0  0  0  0
 16 29  1  0  0  0  0
 16 30  1  0  0  0  0
 18 19  1  0  0  0  0
 19 20  2  0  0  0  0
 21 23  1  0  0  0  0
 21 35  1  0  0  0  0
 21 36  1  0  0  0  0
 22 37  1  0  0  0  0
 23 38  1  0  0  0  0
 23 39  1  0  0  0  0
 24 42  1  0  0  0  0
 24 43  1  0  0  0  0
 24 44  1  0  0  0  0
M  END
> <PUBCHEM_COMPOUND_CID>
42530734

> <PUBCHEM_COMPOUND_CANONICALIZED>
1

> <PUBCHEM_CACTVS_COMPLEXITY>
420

> <PUBCHEM_CACTVS_HBOND_ACCEPTOR>
10

> <PUBCHEM_CACTVS_HBOND_DONOR>
5

> <PUBCHEM_CACTVS_ROTATABLE_BOND>
6

> <PUBCHEM_CACTVS_SUBSKEYS>
AAADceBzuAAAAAAAAAAAAAAAAAAAAWJAAAAsAAAAAAAAAFgB+AAAHgAQCAAACBzhlwYH8L/MFgCgAQZhZACAgC0REKABUKAoVBCDWAJAyEAfRAgPEALTACDwMAIAAAAAAAAAAAAAAAAAAAAAAAAAAAAAAA==

> <PUBCHEM_IUPAC_OPENEYE_NAME>
(2S,3S,4S,5R)-2-[6-amino-8-(2-methoxyethylamino)purin-9-yl]-5-(hydroxymethyl)tetrahydrofuran-3,4-diol

> <PUBCHEM_IUPAC_CAS_NAME>
(2S,3S,4S,5R)-2-[6-amino-8-(2-methoxyethylamino)-9-purinyl]-5-(hydroxymethyl)oxolane-3,4-diol

> <PUBCHEM_IUPAC_NAME>
(2S,3S,4S,5R)-2-[6-amino-8-(2-methoxyethylamino)purin-9-yl]-5-(hydroxymethyl)oxolane-3,4-diol

> <PUBCHEM_IUPAC_SYSTEMATIC_NAME>
(2S,3S,4S,5R)-2-[6-azanyl-8-(2-methoxyethylamino)purin-9-yl]-5-(hydroxymethyl)oxolane-3,4-diol

> <PUBCHEM_IUPAC_TRADITIONAL_NAME>
(2S,3S,4S,5R)-2-[6-amino-8-(2-methoxyethylamino)purin-9-yl]-5-methylol-tetrahydrofuran-3,4-diol

> <PUBCHEM_IUPAC_INCHI>
InChI=1S/C13H20N6O5/c1-23-3-2-15-13-18-7-10(14)16-5-17-11(7)19(13)12-9(22)8(21)6(4-20)24-12/h5-6,8-9,12,20-22H,2-4H2,1H3,(H,15,18)(H2,14,16,17)/t6-,8-,9+,12+/m1/s1

> <PUBCHEM_IUPAC_INCHIKEY>
AWXXUJPQAZFVOC-WJOUQXRDSA-N

> <PUBCHEM_XLOGP3>
-0.9

> <PUBCHEM_EXACT_MASS>
340.149518

> <PUBCHEM_MOLECULAR_FORMULA>
C13H20N6O5

> <PUBCHEM_MOLECULAR_WEIGHT>
340.3351

> <PUBCHEM_OPENEYE_CAN_SMILES>
COCCNC1=NC2=C(N1C3C(C(C(O3)CO)O)O)N=CN=C2N

> <PUBCHEM_OPENEYE_ISO_SMILES>
COCCNC1=NC2=C(N1[C@@H]3[C@H]([C@@H]([C@H](O3)CO)O)O)N=CN=C2N

> <PUBCHEM_CACTVS_TPSA>
161

> <PUBCHEM_MONOISOTOPIC_WEIGHT>
340.149518

> <PUBCHEM_TOTAL_CHARGE>
0

> <PUBCHEM_HEAVY_ATOM_COUNT>
24

> <PUBCHEM_ATOM_DEF_STEREO_COUNT>
4

> <PUBCHEM_ATOM_UDEF_STEREO_COUNT>
0

> <PUBCHEM_BOND_DEF_STEREO_COUNT>
0

> <PUBCHEM_BOND_UDEF_STEREO_COUNT>
0

> <PUBCHEM_ISOTOPIC_ATOM_COUNT>
0

> <PUBCHEM_COMPONENT_COUNT>
1

> <PUBCHEM_CACTVS_TAUTO_COUNT>
6

> <PUBCHEM_COORDINATE_TYPE>
1
5
255

> <PUBCHEM_BONDANNOTATIONS>
10  20  8
10  22  8
15  16  6
18  19  8
19  20  8
13  2  6
14  3  5
12  6  5
6  17  8
6  18  8
7  17  8
7  19  8
9  18  8
9  22  8

$$$$
42530894
  -OEChem-11301217502D

 44 47  0     1  0  0  0  0  0999 V2000
    4.4026    1.1580    0.0000 O   0  0  0  0  0  0  0  0  0  0  0  0
    6.7485    0.0662    0.0000 O   0  0  0  0  0  0  0  0  0  0  0  0
    6.7523    2.2418    0.0000 O   0  0  0  0  0  0  0  0  0  0  0  0
    3.7066    3.1272    0.0000 O   0  0  0  0  0  0  0  0  0  0  0  0
    8.3497   -1.4642    0.0000 O   0  0  0  0  0  0  0  0  0  0  0  0
    4.6783   -0.6025    0.0000 N   0  0  0  0  0  0  0  0  0  0  0  0
    4.6783   -2.2120    0.0000 N   0  0  0  0  0  0  0  0  0  0  0  0
    6.2619   -1.4072    0.0000 N   0  0  0  0  0  0  0  0  0  0  0  0
    2.8660   -0.4072    0.0000 N   0  0  0  0  0  0  0  0  0  0  0  0
    2.0000   -1.9072    0.0000 N   0  0  0  0  0  0  0  0  0  0  0  0
    2.8660   -3.4072    0.0000 N   0  0  0  0  0  0  0  0  0  0  0  0
    4.9889    0.3480    0.0000 C   0  0  1  0  0  0  0  0  0  0  0  0
    5.9405    0.6554    0.0000 C   0  0  2  0  0  0  0  0  0  0  0  0
    5.9422    1.6554    0.0000 C   0  0  1  0  0  0  0  0  0  0  0  0
    4.9917    1.9660    0.0000 C   0  0  1  0  0  0  0  0  0  0  0  0
    4.6844    2.9176    0.0000 C   0  0  0  0  0  0  0  0  0  0  0  0
    5.2619   -1.4072    0.0000 C   0  0  0  0  0  0  0  0  0  0  0  0
    3.7320   -0.9072    0.0000 C   0  0  0  0  0  0  0  0  0  0  0  0
    3.7320   -1.9072    0.0000 C   0  0  0  0  0  0  0  0  0  0  0  0
    2.8660   -2.4072    0.0000 C   0  0  0  0  0  0  0  0  0  0  0  0
    6.7619   -2.2733    0.0000 C   0  0  0  0  0  0  0  0  0  0  0  0
    2.0000   -0.9072    0.0000 C   0  0  0  0  0  0  0  0  0  0  0  0
    7.7619   -2.2733    0.0000 C   0  0  0  0  0  0  0  0  0  0  0  0
    8.3497   -3.0823    0.0000 C   0  0  0  0  0  0  0  0  0  0  0  0
    9.3007   -2.7733    0.0000 C   0  0  0  0  0  0  0  0  0  0  0  0
    9.3007   -1.7733    0.0000 C   0  0  0  0  0  0  0  0  0  0  0  0
    5.4266   -0.0911    0.0000 H   0  0  0  0  0  0  0  0  0  0  0  0
    6.4934    0.9359    0.0000 H   0  0  0  0  0  0  0  0  0  0  0  0
    5.8463    2.2679    0.0000 H   0  0  0  0  0  0  0  0  0  0  0  0
    4.3795    2.0641    0.0000 H   0  0  0  0  0  0  0  0  0  0  0  0
    5.2985    3.0029    0.0000 H   0  0  0  0  0  0  0  0  0  0  0  0
    4.7071    3.5372    0.0000 H   0  0  0  0  0  0  0  0  0  0  0  0
    7.3154    0.3174    0.0000 H   0  0  0  0  0  0  0  0  0  0  0  0
    6.6886    2.8585    0.0000 H   0  0  0  0  0  0  0  0  0  0  0  0
    6.5719   -0.8703    0.0000 H   0  0  0  0  0  0  0  0  0  0  0  0
    3.5160    3.7172    0.0000 H   0  0  0  0  0  0  0  0  0  0  0  0
    6.1793   -2.4853    0.0000 H   0  0  0  0  0  0  0  0  0  0  0  0
    6.8695   -2.8838    0.0000 H   0  0  0  0  0  0  0  0  0  0  0  0
    1.4631   -0.5972    0.0000 H   0  0  0  0  0  0  0  0  0  0  0  0
    2.3291   -3.7172    0.0000 H   0  0  0  0  0  0  0  0  0  0  0  0
    3.4030   -3.7172    0.0000 H   0  0  0  0  0  0  0  0  0  0  0  0
    8.1581   -3.6719    0.0000 H   0  0  0  0  0  0  0  0  0  0  0  0
    9.8023   -3.1377    0.0000 H   0  0  0  0  0  0  0  0  0  0  0  0
    9.8023   -1.4088    0.0000 H   0  0  0  0  0  0  0  0  0  0  0  0
  1 12  1  0  0  0  0
  1 15  1  0  0  0  0
 13  2  1  6  0  0  0
  2 33  1  0  0  0  0
 14  3  1  1  0  0  0
  3 34  1  0  0  0  0
  4 16  1  0  0  0  0
  4 36  1  0  0  0  0
  5 23  1  0  0  0  0
  5 26  1  0  0  0  0
 12  6  1  6  0  0  0
  6 17  1  0  0  0  0
  6 18  1  0  0  0  0
  7 17  2  0  0  0  0
  7 19  1  0  0  0  0
  8 17  1  0  0  0  0
  8 21  1  0  0  0  0
  8 35  1  0  0  0  0
  9 18  2  0  0  0  0
  9 22  1  0  0  0  0
 10 20  1  0  0  0  0
 10 22  2  0  0  0  0
 11 20  1  0  0  0  0
 11 40  1  0  0  0  0
 11 41  1  0  0  0  0
 12 13  1  0  0  0  0
 12 27  1  0  0  0  0
 13 14  1  0  0  0  0
 13 28  1  0  0  0  0
 14 15  1  0  0  0  0
 14 29  1  0  0  0  0
 15 16  1  6  0  0  0
 15 30  1  0  0  0  0
 16 31  1  0  0  0  0
 16 32  1  0  0  0  0
 18 19  1  0  0  0  0
 19 20  2  0  0  0  0
 21 23  1  0  0  0  0
 21 37  1  0  0  0  0
 21 38  1  0  0  0  0
 22 39  1  0  0  0  0
 23 24  2  0  0  0  0
 24 25  1  0  0  0  0
 24 42  1  0  0  0  0
 25 26  2  0  0  0  0
 25 43  1  0  0  0  0
 26 44  1  0  0  0  0
M  END
> <PUBCHEM_COMPOUND_CID>
42530894

> <PUBCHEM_COMPOUND_CANONICALIZED>
1

> <PUBCHEM_CACTVS_COMPLEXITY>
489

> <PUBCHEM_CACTVS_HBOND_ACCEPTOR>
10

> <PUBCHEM_CACTVS_HBOND_DONOR>
5

> <PUBCHEM_CACTVS_ROTATABLE_BOND>
5

> <PUBCHEM_CACTVS_SUBSKEYS>
AAADceBzuAAAAAAAAAAAAAAAAAAAAWJEgAAsAAAAAAAAAFgB/gAAHgAQCAAACBzhlwY19L/MFkCoAa5z5ACCiC01MKAJ2KGuXNiPfjLE/XufXSjvwBPbqab4MQIAAAAAAAAAAAAAAAAAAAAAAAAAAAAAAA==

> <PUBCHEM_IUPAC_OPENEYE_NAME>
(2R,3S,4S,5R)-2-[6-amino-8-(2-furylmethylamino)purin-9-yl]-5-(hydroxymethyl)tetrahydrofuran-3,4-diol

> <PUBCHEM_IUPAC_CAS_NAME>
(2R,3S,4S,5R)-2-[6-amino-8-(2-furanylmethylamino)-9-purinyl]-5-(hydroxymethyl)oxolane-3,4-diol

> <PUBCHEM_IUPAC_NAME>
(2R,3S,4S,5R)-2-[6-amino-8-(furan-2-ylmethylamino)purin-9-yl]-5-(hydroxymethyl)oxolane-3,4-diol

> <PUBCHEM_IUPAC_SYSTEMATIC_NAME>
(2R,3S,4S,5R)-2-[6-azanyl-8-(furan-2-ylmethylamino)purin-9-yl]-5-(hydroxymethyl)oxolane-3,4-diol

> <PUBCHEM_IUPAC_TRADITIONAL_NAME>
(2R,3S,4S,5R)-2-[6-amino-8-(2-furfurylamino)purin-9-yl]-5-methylol-tetrahydrofuran-3,4-diol

> <PUBCHEM_IUPAC_INCHI>
InChI=1S/C15H18N6O5/c16-12-9-13(19-6-18-12)21(14-11(24)10(23)8(5-22)26-14)15(20-9)17-4-7-2-1-3-25-7/h1-3,6,8,10-11,14,22-24H,4-5H2,(H,17,20)(H2,16,18,19)/t8-,10-,11+,14-/m1/s1

> <PUBCHEM_IUPAC_INCHIKEY>
JGQOOMBMFYSIEZ-GCDPNZCJSA-N

> <PUBCHEM_XLOGP3>
-0.1

> <PUBCHEM_EXACT_MASS>
362.133868

> <PUBCHEM_MOLECULAR_FORMULA>
C15H18N6O5

> <PUBCHEM_MOLECULAR_WEIGHT>
362.34062

> <PUBCHEM_OPENEYE_CAN_SMILES>
C1=COC(=C1)CNC2=NC3=C(N2C4C(C(C(O4)CO)O)O)N=CN=C3N

> <PUBCHEM_OPENEYE_ISO_SMILES>
C1=COC(=C1)CNC2=NC3=C(N2[C@H]4[C@H]([C@@H]([C@H](O4)CO)O)O)N=CN=C3N

> <PUBCHEM_CACTVS_TPSA>
165

> <PUBCHEM_MONOISOTOPIC_WEIGHT>
362.133868

> <PUBCHEM_TOTAL_CHARGE>
0

> <PUBCHEM_HEAVY_ATOM_COUNT>
26

> <PUBCHEM_ATOM_DEF_STEREO_COUNT>
4

> <PUBCHEM_ATOM_UDEF_STEREO_COUNT>
0

> <PUBCHEM_BOND_DEF_STEREO_COUNT>
0

> <PUBCHEM_BOND_UDEF_STEREO_COUNT>
0

> <PUBCHEM_ISOTOPIC_ATOM_COUNT>
0

> <PUBCHEM_COMPONENT_COUNT>
1

> <PUBCHEM_CACTVS_TAUTO_COUNT>
6

> <PUBCHEM_COORDINATE_TYPE>
1
5
255

> <PUBCHEM_BONDANNOTATIONS>
10  20  8
10  22  8
15  16  6
18  19  8
19  20  8
13  2  6
23  24  8
24  25  8
25  26  8
14  3  5
5  23  8
5  26  8
12  6  6
6  17  8
6  18  8
7  17  8
7  19  8
9  18  8
9  22  8

$$$$
42530895
  -OEChem-11301217502D

 44 47  0     1  0  0  0  0  0999 V2000
    4.4026    1.1580    0.0000 O   0  0  0  0  0  0  0  0  0  0  0  0
    6.7485    0.0662    0.0000 O   0  0  0  0  0  0  0  0  0  0  0  0
    6.7523    2.2418    0.0000 O   0  0  0  0  0  0  0  0  0  0  0  0
    3.7066    3.1272    0.0000 O   0  0  0  0  0  0  0  0  0  0  0  0
    8.3497   -1.4642    0.0000 O   0  0  0  0  0  0  0  0  0  0  0  0
    4.6783   -0.6025    0.0000 N   0  0  0  0  0  0  0  0  0  0  0  0
    4.6783   -2.2120    0.0000 N   0  0  0  0  0  0  0  0  0  0  0  0
    6.2619   -1.4072    0.0000 N   0  0  0  0  0  0  0  0  0  0  0  0
    2.8660   -0.4072    0.0000 N   0  0  0  0  0  0  0  0  0  0  0  0
    2.0000   -1.9072    0.0000 N   0  0  0  0  0  0  0  0  0  0  0  0
    2.8660   -3.4072    0.0000 N   0  0  0  0  0  0  0  0  0  0  0  0
    4.9889    0.3480    0.0000 C   0  0  2  0  0  0  0  0  0  0  0  0
    5.9405    0.6554    0.0000 C   0  0  2  0  0  0  0  0  0  0  0  0
    5.9422    1.6554    0.0000 C   0  0  1  0  0  0  0  0  0  0  0  0
    4.9917    1.9660    0.0000 C   0  0  1  0  0  0  0  0  0  0  0  0
    4.6844    2.9176    0.0000 C   0  0  0  0  0  0  0  0  0  0  0  0
    5.2619   -1.4072    0.0000 C   0  0  0  0  0  0  0  0  0  0  0  0
    3.7320   -0.9072    0.0000 C   0  0  0  0  0  0  0  0  0  0  0  0
    3.7320   -1.9072    0.0000 C   0  0  0  0  0  0  0  0  0  0  0  0
    2.8660   -2.4072    0.0000 C   0  0  0  0  0  0  0  0  0  0  0  0
    6.7619   -2.2733    0.0000 C   0  0  0  0  0  0  0  0  0  0  0  0
    2.0000   -0.9072    0.0000 C   0  0  0  0  0  0  0  0  0  0  0  0
    7.7619   -2.2733    0.0000 C   0  0  0  0  0  0  0  0  0  0  0  0
    8.3497   -3.0823    0.0000 C   0  0  0  0  0  0  0  0  0  0  0  0
    9.3007   -2.7733    0.0000 C   0  0  0  0  0  0  0  0  0  0  0  0
    9.3007   -1.7733    0.0000 C   0  0  0  0  0  0  0  0  0  0  0  0
    5.4266   -0.0911    0.0000 H   0  0  0  0  0  0  0  0  0  0  0  0
    6.4934    0.9359    0.0000 H   0  0  0  0  0  0  0  0  0  0  0  0
    5.8463    2.2679    0.0000 H   0  0  0  0  0  0  0  0  0  0  0  0
    4.3795    2.0641    0.0000 H   0  0  0  0  0  0  0  0  0  0  0  0
    5.2985    3.0029    0.0000 H   0  0  0  0  0  0  0  0  0  0  0  0
    4.7071    3.5372    0.0000 H   0  0  0  0  0  0  0  0  0  0  0  0
    7.3154    0.3174    0.0000 H   0  0  0  0  0  0  0  0  0  0  0  0
    6.6886    2.8585    0.0000 H   0  0  0  0  0  0  0  0  0  0  0  0
    6.5719   -0.8703    0.0000 H   0  0  0  0  0  0  0  0  0  0  0  0
    3.5160    3.7172    0.0000 H   0  0  0  0  0  0  0  0  0  0  0  0
    6.1793   -2.4853    0.0000 H   0  0  0  0  0  0  0  0  0  0  0  0
    6.8695   -2.8838    0.0000 H   0  0  0  0  0  0  0  0  0  0  0  0
    1.4631   -0.5972    0.0000 H   0  0  0  0  0  0  0  0  0  0  0  0
    2.3291   -3.7172    0.0000 H   0  0  0  0  0  0  0  0  0  0  0  0
    3.4030   -3.7172    0.0000 H   0  0  0  0  0  0  0  0  0  0  0  0
    8.1581   -3.6719    0.0000 H   0  0  0  0  0  0  0  0  0  0  0  0
    9.8023   -3.1377    0.0000 H   0  0  0  0  0  0  0  0  0  0  0  0
    9.8023   -1.4088    0.0000 H   0  0  0  0  0  0  0  0  0  0  0  0
  1 12  1  0  0  0  0
  1 15  1  0  0  0  0
 13  2  1  6  0  0  0
  2 33  1  0  0  0  0
 14  3  1  1  0  0  0
  3 34  1  0  0  0  0
  4 16  1  0  0  0  0
  4 36  1  0  0  0  0
  5 23  1  0  0  0  0
  5 26  1  0  0  0  0
 12  6  1  1  0  0  0
  6 17  1  0  0  0  0
  6 18  1  0  0  0  0
  7 17  2  0  0  0  0
  7 19  1  0  0  0  0
  8 17  1  0  0  0  0
  8 21  1  0  0  0  0
  8 35  1  0  0  0  0
  9 18  2  0  0  0  0
  9 22  1  0  0  0  0
 10 20  1  0  0  0  0
 10 22  2  0  0  0  0
 11 20  1  0  0  0  0
 11 40  1  0  0  0  0
 11 41  1  0  0  0  0
 12 13  1  0  0  0  0
 12 27  1  0  0  0  0
 13 14  1  0  0  0  0
 13 28  1  0  0  0  0
 14 15  1  0  0  0  0
 14 29  1  0  0  0  0
 15 16  1  6  0  0  0
 15 30  1  0  0  0  0
 16 31  1  0  0  0  0
 16 32  1  0  0  0  0
 18 19  1  0  0  0  0
 19 20  2  0  0  0  0
 21 23  1  0  0  0  0
 21 37  1  0  0  0  0
 21 38  1  0  0  0  0
 22 39  1  0  0  0  0
 23 24  2  0  0  0  0
 24 25  1  0  0  0  0
 24 42  1  0  0  0  0
 25 26  2  0  0  0  0
 25 43  1  0  0  0  0
 26 44  1  0  0  0  0
M  END
> <PUBCHEM_COMPOUND_CID>
42530895

> <PUBCHEM_COMPOUND_CANONICALIZED>
1

> <PUBCHEM_CACTVS_COMPLEXITY>
489

> <PUBCHEM_CACTVS_HBOND_ACCEPTOR>
10

> <PUBCHEM_CACTVS_HBOND_DONOR>
5

> <PUBCHEM_CACTVS_ROTATABLE_BOND>
5

> <PUBCHEM_CACTVS_SUBSKEYS>
AAADceBzuAAAAAAAAAAAAAAAAAAAAWJEgAAsAAAAAAAAAFgB/gAAHgAQCAAACBzhlwY19L/MFkCoAa5z5ACCiC01MKAJ2KGuXNiPfjLE/XufXSjvwBPbqab4MQIAAAAAAAAAAAAAAAAAAAAAAAAAAAAAAA==

> <PUBCHEM_IUPAC_OPENEYE_NAME>
(2S,3S,4S,5R)-2-[6-amino-8-(2-furylmethylamino)purin-9-yl]-5-(hydroxymethyl)tetrahydrofuran-3,4-diol

> <PUBCHEM_IUPAC_CAS_NAME>
(2S,3S,4S,5R)-2-[6-amino-8-(2-furanylmethylamino)-9-purinyl]-5-(hydroxymethyl)oxolane-3,4-diol

> <PUBCHEM_IUPAC_NAME>
(2S,3S,4S,5R)-2-[6-amino-8-(furan-2-ylmethylamino)purin-9-yl]-5-(hydroxymethyl)oxolane-3,4-diol

> <PUBCHEM_IUPAC_SYSTEMATIC_NAME>
(2S,3S,4S,5R)-2-[6-azanyl-8-(furan-2-ylmethylamino)purin-9-yl]-5-(hydroxymethyl)oxolane-3,4-diol

> <PUBCHEM_IUPAC_TRADITIONAL_NAME>
(2S,3S,4S,5R)-2-[6-amino-8-(2-furfurylamino)purin-9-yl]-5-methylol-tetrahydrofuran-3,4-diol

> <PUBCHEM_IUPAC_INCHI>
InChI=1S/C15H18N6O5/c16-12-9-13(19-6-18-12)21(14-11(24)10(23)8(5-22)26-14)15(20-9)17-4-7-2-1-3-25-7/h1-3,6,8,10-11,14,22-24H,4-5H2,(H,17,20)(H2,16,18,19)/t8-,10-,11+,14+/m1/s1

> <PUBCHEM_IUPAC_INCHIKEY>
JGQOOMBMFYSIEZ-GJTWSCIVSA-N

> <PUBCHEM_XLOGP3>
-0.1

> <PUBCHEM_EXACT_MASS>
362.133868

> <PUBCHEM_MOLECULAR_FORMULA>
C15H18N6O5

> <PUBCHEM_MOLECULAR_WEIGHT>
362.34062

> <PUBCHEM_OPENEYE_CAN_SMILES>
C1=COC(=C1)CNC2=NC3=C(N2C4C(C(C(O4)CO)O)O)N=CN=C3N

> <PUBCHEM_OPENEYE_ISO_SMILES>
C1=COC(=C1)CNC2=NC3=C(N2[C@@H]4[C@H]([C@@H]([C@H](O4)CO)O)O)N=CN=C3N

> <PUBCHEM_CACTVS_TPSA>
165

> <PUBCHEM_MONOISOTOPIC_WEIGHT>
362.133868

> <PUBCHEM_TOTAL_CHARGE>
0

> <PUBCHEM_HEAVY_ATOM_COUNT>
26

> <PUBCHEM_ATOM_DEF_STEREO_COUNT>
4

> <PUBCHEM_ATOM_UDEF_STEREO_COUNT>
0

> <PUBCHEM_BOND_DEF_STEREO_COUNT>
0

> <PUBCHEM_BOND_UDEF_STEREO_COUNT>
0

> <PUBCHEM_ISOTOPIC_ATOM_COUNT>
0

> <PUBCHEM_COMPONENT_COUNT>
1

> <PUBCHEM_CACTVS_TAUTO_COUNT>
6

> <PUBCHEM_COORDINATE_TYPE>
1
5
255

> <PUBCHEM_BONDANNOTATIONS>
10  20  8
10  22  8
15  16  6
18  19  8
19  20  8
13  2  6
23  24  8
24  25  8
25  26  8
14  3  5
5  23  8
5  26  8
12  6  5
6  17  8
6  18  8
7  17  8
7  19  8
9  18  8
9  22  8

$$$$
42546003
  -OEChem-11301217512D

 47 49  0     1  0  0  0  0  0999 V2000
    5.4641    0.2990    0.0000 N   0  3  3  0  0  0  0  0  0  0  0  0
    2.8660   -1.2010    0.0000 N   0  0  0  0  0  0  0  0  0  0  0  0
    4.5981    0.7990    0.0000 C   0  0  2  0  0  0  0  0  0  0  0  0
    6.3301    0.7990    0.0000 C   0  0  0  0  0  0  0  0  0  0  0  0
    4.5981    1.7990    0.0000 C   0  0  0  0  0  0  0  0  0  0  0  0
    6.3301    1.7990    0.0000 C   0  0  0  0  0  0  0  0  0  0  0  0
    5.4641    2.2990    0.0000 C   0  0  0  0  0  0  0  0  0  0  0  0
    5.9641   -0.5670    0.0000 C   0  0  0  0  0  0  0  0  0  0  0  0
    3.7320    0.2990    0.0000 C   0  0  0  0  0  0  0  0  0  0  0  0
    6.9641   -0.5670    0.0000 C   0  0  0  0  0  0  0  0  0  0  0  0
    2.8660    0.7990    0.0000 C   0  0  0  0  0  0  0  0  0  0  0  0
    3.7320   -0.7010    0.0000 C   0  0  0  0  0  0  0  0  0  0  0  0
    7.4641    0.2990    0.0000 C   0  0  0  0  0  0  0  0  0  0  0  0
    7.4641   -1.4330    0.0000 C   0  0  0  0  0  0  0  0  0  0  0  0
    2.0000    0.2990    0.0000 C   0  0  0  0  0  0  0  0  0  0  0  0
    2.0000   -0.7010    0.0000 C   0  0  0  0  0  0  0  0  0  0  0  0
    8.4641   -1.4330    0.0000 C   0  0  0  0  0  0  0  0  0  0  0  0
    8.9641   -0.5670    0.0000 C   0  0  0  0  0  0  0  0  0  0  0  0
    8.9641   -2.2990    0.0000 C   0  0  0  0  0  0  0  0  0  0  0  0
    9.9641   -0.5670    0.0000 C   0  0  0  0  0  0  0  0  0  0  0  0
    9.9641   -2.2990    0.0000 C   0  0  0  0  0  0  0  0  0  0  0  0
   10.4641   -1.4330    0.0000 C   0  0  0  0  0  0  0  0  0  0  0  0
    5.1541   -0.2379    0.0000 H   0  0  0  0  0  0  0  0  0  0  0  0
    4.5981    0.1790    0.0000 H   0  0  0  0  0  0  0  0  0  0  0  0
    6.5422    0.2164    0.0000 H   0  0  0  0  0  0  0  0  0  0  0  0
    6.9407    0.9067    0.0000 H   0  0  0  0  0  0  0  0  0  0  0  0
    4.3860    2.3816    0.0000 H   0  0  0  0  0  0  0  0  0  0  0  0
    3.9875    1.6914    0.0000 H   0  0  0  0  0  0  0  0  0  0  0  0
    6.9407    1.6914    0.0000 H   0  0  0  0  0  0  0  0  0  0  0  0
    6.5422    2.3816    0.0000 H   0  0  0  0  0  0  0  0  0  0  0  0
    5.8626    2.7740    0.0000 H   0  0  0  0  0  0  0  0  0  0  0  0
    5.0656    2.7740    0.0000 H   0  0  0  0  0  0  0  0  0  0  0  0
    5.3815   -0.7790    0.0000 H   0  0  0  0  0  0  0  0  0  0  0  0
    6.0718   -1.1776    0.0000 H   0  0  0  0  0  0  0  0  0  0  0  0
    2.8660    1.4190    0.0000 H   0  0  0  0  0  0  0  0  0  0  0  0
    4.2690   -1.0110    0.0000 H   0  0  0  0  0  0  0  0  0  0  0  0
    8.0010   -0.0110    0.0000 H   0  0  0  0  0  0  0  0  0  0  0  0
    7.7741    0.8360    0.0000 H   0  0  0  0  0  0  0  0  0  0  0  0
    6.9272    0.6090    0.0000 H   0  0  0  0  0  0  0  0  0  0  0  0
    7.1541   -1.9700    0.0000 H   0  0  0  0  0  0  0  0  0  0  0  0
    1.4631    0.6090    0.0000 H   0  0  0  0  0  0  0  0  0  0  0  0
    1.4631   -1.0110    0.0000 H   0  0  0  0  0  0  0  0  0  0  0  0
    8.6541   -0.0301    0.0000 H   0  0  0  0  0  0  0  0  0  0  0  0
    8.6541   -2.8360    0.0000 H   0  0  0  0  0  0  0  0  0  0  0  0
   10.2741   -0.0301    0.0000 H   0  0  0  0  0  0  0  0  0  0  0  0
   10.2741   -2.8360    0.0000 H   0  0  0  0  0  0  0  0  0  0  0  0
   11.0841   -1.4330    0.0000 H   0  0  0  0  0  0  0  0  0  0  0  0
  1  3  1  0  0  0  0
  1  4  1  0  0  0  0
  1  8  1  0  0  0  0
  1 23  1  0  0  0  0
  2 12  1  0  0  0  0
  2 16  2  0  0  0  0
  3  5  1  0  0  0  0
  3  9  1  1  0  0  0
  3 24  1  0  0  0  0
  4  6  1  0  0  0  0
  4 25  1  0  0  0  0
  4 26  1  0  0  0  0
  5  7  1  0  0  0  0
  5 27  1  0  0  0  0
  5 28  1  0  0  0  0
  6  7  1  0  0  0  0
  6 29  1  0  0  0  0
  6 30  1  0  0  0  0
  7 31  1  0  0  0  0
  7 32  1  0  0  0  0
  8 10  1  0  0  0  0
  8 33  1  0  0  0  0
  8 34  1  0  0  0  0
  9 11  1  0  0  0  0
  9 12  2  0  0  0  0
 10 13  1  0  0  0  0
 10 14  2  0  0  0  0
 11 15  2  0  0  0  0
 11 35  1  0  0  0  0
 12 36  1  0  0  0  0
 13 37  1  0  0  0  0
 13 38  1  0  0  0  0
 13 39  1  0  0  0  0
 14 17  1  0  0  0  0
 14 40  1  0  0  0  0
 15 16  1  0  0  0  0
 15 41  1  0  0  0  0
 16 42  1  0  0  0  0
 17 18  2  0  0  0  0
 17 19  1  0  0  0  0
 18 20  1  0  0  0  0
 18 43  1  0  0  0  0
 19 21  2  0  0  0  0
 19 44  1  0  0  0  0
 20 22  2  0  0  0  0
 20 45  1  0  0  0  0
 21 22  1  0  0  0  0
 21 46  1  0  0  0  0
 22 47  1  0  0  0  0
M  CHG  1   1   1
M  END
> <PUBCHEM_COMPOUND_CID>
42546003

> <PUBCHEM_COMPOUND_CANONICALIZED>
1

> <PUBCHEM_CACTVS_COMPLEXITY>
357

> <PUBCHEM_CACTVS_HBOND_ACCEPTOR>
1

> <PUBCHEM_CACTVS_HBOND_DONOR>
1

> <PUBCHEM_CACTVS_ROTATABLE_BOND>
4

> <PUBCHEM_CACTVS_SUBSKEYS>
AAADceB7AAAAAAAAAAAAAAAAAAAAAAAAAAA8WIAAAAAAAAABwAAAHAAQAAAADCjBGgQ+gJPIEACgAjBnRACCgCAxAiAI2KA4ZJgIIOLA0ZGEIAhgkADIyAcQgMAOAAAAAAAAAAAAAAAAAAAAAAAAAAAAAA==

> <PUBCHEM_IUPAC_OPENEYE_NAME>
3-[(2R)-1-[(E)-2-methyl-3-phenyl-allyl]piperidin-1-ium-2-yl]pyridine

> <PUBCHEM_IUPAC_CAS_NAME>
3-[(2R)-1-[(E)-2-methyl-3-phenylprop-2-enyl]-2-piperidin-1-iumyl]pyridine

> <PUBCHEM_IUPAC_NAME>
3-[(2R)-1-[(E)-2-methyl-3-phenylprop-2-enyl]piperidin-1-ium-2-yl]pyridine

> <PUBCHEM_IUPAC_SYSTEMATIC_NAME>
3-[(2R)-1-[(E)-2-methyl-3-phenyl-prop-2-enyl]piperidin-1-ium-2-yl]pyridine

> <PUBCHEM_IUPAC_TRADITIONAL_NAME>
3-[(2R)-1-[(E)-2-methyl-3-phenyl-allyl]piperidin-1-ium-2-yl]pyridine

> <PUBCHEM_IUPAC_INCHI>
InChI=1S/C20H24N2/c1-17(14-18-8-3-2-4-9-18)16-22-13-6-5-11-20(22)19-10-7-12-21-15-19/h2-4,7-10,12,14-15,20H,5-6,11,13,16H2,1H3/p+1/b17-14+/t20-/m1/s1

> <PUBCHEM_IUPAC_INCHIKEY>
NBMMYSQFBHODPI-BBKFTCMMSA-O

> <PUBCHEM_XLOGP3>
3.7

> <PUBCHEM_EXACT_MASS>
293.201774

> <PUBCHEM_MOLECULAR_FORMULA>
C20H25N2+

> <PUBCHEM_MOLECULAR_WEIGHT>
293.4259

> <PUBCHEM_OPENEYE_CAN_SMILES>
CC(=CC1=CC=CC=C1)C[NH+]2CCCCC2C3=CN=CC=C3

> <PUBCHEM_OPENEYE_ISO_SMILES>
C/C(=C\C1=CC=CC=C1)/C[NH+]2CCCC[C@@H]2C3=CN=CC=C3

> <PUBCHEM_CACTVS_TPSA>
17.3

> <PUBCHEM_MONOISOTOPIC_WEIGHT>
293.201774

> <PUBCHEM_TOTAL_CHARGE>
1

> <PUBCHEM_HEAVY_ATOM_COUNT>
22

> <PUBCHEM_ATOM_DEF_STEREO_COUNT>
1

> <PUBCHEM_ATOM_UDEF_STEREO_COUNT>
0

> <PUBCHEM_BOND_DEF_STEREO_COUNT>
1

> <PUBCHEM_BOND_UDEF_STEREO_COUNT>
0

> <PUBCHEM_ISOTOPIC_ATOM_COUNT>
0

> <PUBCHEM_COMPONENT_COUNT>
1

> <PUBCHEM_CACTVS_TAUTO_COUNT>
1

> <PUBCHEM_COORDINATE_TYPE>
1
5
255

> <PUBCHEM_BONDANNOTATIONS>
11  15  8
15  16  8
17  18  8
17  19  8
18  20  8
19  21  8
2  12  8
2  16  8
20  22  8
21  22  8
3  9  5
9  11  8
9  12  8

$$$$
42547247
  -OEChem-11301217512D

 33 34  0     1  0  0  0  0  0999 V2000
    2.8660   -1.7490    0.0000 N   0  0  0  0  0  0  0  0  0  0  0  0
    3.7320    2.7510    0.0000 N   0  3  0  0  0  0  0  0  0  0  0  0
    3.6750   -2.3368    0.0000 C   0  0  0  0  0  0  0  0  0  0  0  0
    2.0570   -2.3368    0.0000 C   0  0  0  0  0  0  0  0  0  0  0  0
    3.3660   -3.2879    0.0000 C   0  0  0  0  0  0  0  0  0  0  0  0
    2.3660   -3.2879    0.0000 C   0  0  0  0  0  0  0  0  0  0  0  0
    2.8660   -0.7490    0.0000 C   0  0  0  0  0  0  0  0  0  0  0  0
    2.8660    2.2510    0.0000 C   0  0  1  0  0  0  0  0  0  0  0  0
    2.8660    1.2510    0.0000 C   0  0  0  0  0  0  0  0  0  0  0  0
    3.7320   -0.2490    0.0000 C   0  0  0  0  0  0  0  0  0  0  0  0
    2.0000   -0.2490    0.0000 C   0  0  0  0  0  0  0  0  0  0  0  0
    3.7320    0.7510    0.0000 C   0  0  0  0  0  0  0  0  0  0  0  0
    2.0000    0.7510    0.0000 C   0  0  0  0  0  0  0  0  0  0  0  0
    2.0000    2.7510    0.0000 C   0  0  0  0  0  0  0  0  0  0  0  0
    1.7470   -1.7999    0.0000 H   0  0  0  0  0  0  0  0  0  0  0  0
    1.4906   -2.5890    0.0000 H   0  0  0  0  0  0  0  0  0  0  0  0
    4.2414   -2.5890    0.0000 H   0  0  0  0  0  0  0  0  0  0  0  0
    3.9850   -1.7999    0.0000 H   0  0  0  0  0  0  0  0  0  0  0  0
    1.7596   -3.4168    0.0000 H   0  0  0  0  0  0  0  0  0  0  0  0
    2.4308   -3.9045    0.0000 H   0  0  0  0  0  0  0  0  0  0  0  0
    3.3012   -3.9045    0.0000 H   0  0  0  0  0  0  0  0  0  0  0  0
    3.9725   -3.4168    0.0000 H   0  0  0  0  0  0  0  0  0  0  0  0
    2.8660    2.8710    0.0000 H   0  0  0  0  0  0  0  0  0  0  0  0
    4.2690   -0.5590    0.0000 H   0  0  0  0  0  0  0  0  0  0  0  0
    1.4631   -0.5590    0.0000 H   0  0  0  0  0  0  0  0  0  0  0  0
    4.2690    1.0610    0.0000 H   0  0  0  0  0  0  0  0  0  0  0  0
    1.4631    1.0610    0.0000 H   0  0  0  0  0  0  0  0  0  0  0  0
    4.2690    3.0610    0.0000 H   0  0  0  0  0  0  0  0  0  0  0  0
    3.4220    3.2879    0.0000 H   0  0  0  0  0  0  0  0  0  0  0  0
    4.0420    2.2140    0.0000 H   0  0  0  0  0  0  0  0  0  0  0  0
    2.3100    3.2879    0.0000 H   0  0  0  0  0  0  0  0  0  0  0  0
    1.4631    3.0610    0.0000 H   0  0  0  0  0  0  0  0  0  0  0  0
    1.6900    2.2140    0.0000 H   0  0  0  0  0  0  0  0  0  0  0  0
  1  3  1  0  0  0  0
  1  4  1  0  0  0  0
  1  7  1  0  0  0  0
  8  2  1  1  0  0  0
  2 28  1  0  0  0  0
  2 29  1  0  0  0  0
  2 30  1  0  0  0  0
  3  5  1  0  0  0  0
  3 17  1  0  0  0  0
  3 18  1  0  0  0  0
  4  6  1  0  0  0  0
  4 15  1  0  0  0  0
  4 16  1  0  0  0  0
  5  6  1  0  0  0  0
  5 21  1  0  0  0  0
  5 22  1  0  0  0  0
  6 19  1  0  0  0  0
  6 20  1  0  0  0  0
  7 10  2  0  0  0  0
  7 11  1  0  0  0  0
  8  9  1  0  0  0  0
  8 14  1  0  0  0  0
  8 23  1  0  0  0  0
  9 12  2  0  0  0  0
  9 13  1  0  0  0  0
 10 12  1  0  0  0  0
 10 24  1  0  0  0  0
 11 13  2  0  0  0  0
 11 25  1  0  0  0  0
 12 26  1  0  0  0  0
 13 27  1  0  0  0  0
 14 31  1  0  0  0  0
 14 32  1  0  0  0  0
 14 33  1  0  0  0  0
M  CHG  1   2   1
M  END
> <PUBCHEM_COMPOUND_CID>
42547247

> <PUBCHEM_COMPOUND_CANONICALIZED>
1

> <PUBCHEM_CACTVS_COMPLEXITY>
167

> <PUBCHEM_CACTVS_HBOND_ACCEPTOR>
1

> <PUBCHEM_CACTVS_HBOND_DONOR>
1

> <PUBCHEM_CACTVS_ROTATABLE_BOND>
2

> <PUBCHEM_CACTVS_SUBSKEYS>
AAADceBzAAAAAAAAAAAAAAAAAAAAAWAAAAAwAAAAAAAAAAABAAAAHAAQAAAADCjBGAQywINAAACAAiRCQACCAAAhAgAIiIAIZIgIICLAkZGEIAhgkADIyAcQgIAOCAAAAAAAAAAQAAAAAAAAAAAAAAAAAA==

> <PUBCHEM_IUPAC_OPENEYE_NAME>
[(1R)-1-(4-pyrrolidin-1-ylphenyl)ethyl]ammonium

> <PUBCHEM_IUPAC_CAS_NAME>
[(1R)-1-[4-(1-pyrrolidinyl)phenyl]ethyl]ammonium

> <PUBCHEM_IUPAC_NAME>
[(1R)-1-(4-pyrrolidin-1-ylphenyl)ethyl]azanium

> <PUBCHEM_IUPAC_SYSTEMATIC_NAME>
[(1R)-1-(4-pyrrolidin-1-ylphenyl)ethyl]azanium

> <PUBCHEM_IUPAC_TRADITIONAL_NAME>
[(1R)-1-(4-pyrrolidinophenyl)ethyl]ammonium

> <PUBCHEM_IUPAC_INCHI>
InChI=1S/C12H18N2/c1-10(13)11-4-6-12(7-5-11)14-8-2-3-9-14/h4-7,10H,2-3,8-9,13H2,1H3/p+1/t10-/m1/s1

> <PUBCHEM_IUPAC_INCHIKEY>
OCZYPQZGADEYRH-SNVBAGLBSA-O

> <PUBCHEM_XLOGP3>
2.8

> <PUBCHEM_EXACT_MASS>
191.154824

> <PUBCHEM_MOLECULAR_FORMULA>
C12H19N2+

> <PUBCHEM_MOLECULAR_WEIGHT>
191.29266

> <PUBCHEM_OPENEYE_CAN_SMILES>
CC(C1=CC=C(C=C1)N2CCCC2)[NH3+]

> <PUBCHEM_OPENEYE_ISO_SMILES>
C[C@H](C1=CC=C(C=C1)N2CCCC2)[NH3+]

> <PUBCHEM_CACTVS_TPSA>
30.9

> <PUBCHEM_MONOISOTOPIC_WEIGHT>
191.154824

> <PUBCHEM_TOTAL_CHARGE>
1

> <PUBCHEM_HEAVY_ATOM_COUNT>
14

> <PUBCHEM_ATOM_DEF_STEREO_COUNT>
1

> <PUBCHEM_ATOM_UDEF_STEREO_COUNT>
0

> <PUBCHEM_BOND_DEF_STEREO_COUNT>
0

> <PUBCHEM_BOND_UDEF_STEREO_COUNT>
0

> <PUBCHEM_ISOTOPIC_ATOM_COUNT>
0

> <PUBCHEM_COMPONENT_COUNT>
1

> <PUBCHEM_CACTVS_TAUTO_COUNT>
1

> <PUBCHEM_COORDINATE_TYPE>
1
5
255

> <PUBCHEM_BONDANNOTATIONS>
10  12  8
11  13  8
8  2  5
7  10  8
7  11  8
9  12  8
9  13  8

$$$$
