56047008
  -OEChem-11301218102D

 43 46  0     0  0  0  0  0  0999 V2000
    6.4317    4.2131    0.0000 Cl  0  0  0  0  0  0  0  0  0  0  0  0
    6.6353   -1.6019    0.0000 O   0  0  0  0  0  0  0  0  0  0  0  0
    6.2781    0.0929    0.0000 N   0  0  0  0  0  0  0  0  0  0  0  0
    4.6783   -3.6238    0.0000 N   0  0  0  0  0  0  0  0  0  0  0  0
    7.2566    0.2991    0.0000 C   0  0  0  0  0  0  0  0  0  0  0  0
    7.4628   -0.6794    0.0000 C   0  0  0  0  0  0  0  0  0  0  0  0
    8.2351    0.5053    0.0000 C   0  0  0  0  0  0  0  0  0  0  0  0
    8.4413   -0.4732    0.0000 C   0  0  0  0  0  0  0  0  0  0  0  0
    7.0504    1.2776    0.0000 C   0  0  0  0  0  0  0  0  0  0  0  0
    5.9674   -0.8576    0.0000 C   0  0  0  0  0  0  0  0  0  0  0  0
    7.7947    1.9455    0.0000 C   0  0  0  0  0  0  0  0  0  0  0  0
    6.0999    1.5883    0.0000 C   0  0  0  0  0  0  0  0  0  0  0  0
    4.9889   -1.0638    0.0000 C   0  0  0  0  0  0  0  0  0  0  0  0
    7.5885    2.9240    0.0000 C   0  0  0  0  0  0  0  0  0  0  0  0
    5.8936    2.5668    0.0000 C   0  0  0  0  0  0  0  0  0  0  0  0
    4.6783   -2.0144    0.0000 C   0  0  0  0  0  0  0  0  0  0  0  0
    6.6380    3.2346    0.0000 C   0  0  0  0  0  0  0  0  0  0  0  0
    3.7320   -2.3191    0.0000 C   0  0  0  0  0  0  0  0  0  0  0  0
    5.2619   -2.8191    0.0000 C   0  0  0  0  0  0  0  0  0  0  0  0
    3.7320   -3.3191    0.0000 C   0  0  0  0  0  0  0  0  0  0  0  0
    2.8660   -1.8191    0.0000 C   0  0  0  0  0  0  0  0  0  0  0  0
    2.8660   -3.8191    0.0000 C   0  0  0  0  0  0  0  0  0  0  0  0
    2.0000   -2.3191    0.0000 C   0  0  0  0  0  0  0  0  0  0  0  0
    2.0000   -3.3191    0.0000 C   0  0  0  0  0  0  0  0  0  0  0  0
    6.8562   -0.8072    0.0000 H   0  0  0  0  0  0  0  0  0  0  0  0
    7.5907   -1.2861    0.0000 H   0  0  0  0  0  0  0  0  0  0  0  0
    8.8418    0.6332    0.0000 H   0  0  0  0  0  0  0  0  0  0  0  0
    8.1073    1.1120    0.0000 H   0  0  0  0  0  0  0  0  0  0  0  0
    8.5692   -1.0798    0.0000 H   0  0  0  0  0  0  0  0  0  0  0  0
    9.0480   -0.3453    0.0000 H   0  0  0  0  0  0  0  0  0  0  0  0
    5.8640    0.5544    0.0000 H   0  0  0  0  0  0  0  0  0  0  0  0
    8.3840    1.7529    0.0000 H   0  0  0  0  0  0  0  0  0  0  0  0
    5.6384    1.1742    0.0000 H   0  0  0  0  0  0  0  0  0  0  0  0
    4.9684   -0.4442    0.0000 H   0  0  0  0  0  0  0  0  0  0  0  0
    4.3751   -0.9765    0.0000 H   0  0  0  0  0  0  0  0  0  0  0  0
    8.0499    3.3380    0.0000 H   0  0  0  0  0  0  0  0  0  0  0  0
    5.3043    2.7594    0.0000 H   0  0  0  0  0  0  0  0  0  0  0  0
    5.8819   -2.8191    0.0000 H   0  0  0  0  0  0  0  0  0  0  0  0
    4.8709   -4.2131    0.0000 H   0  0  0  0  0  0  0  0  0  0  0  0
    2.8660   -1.1991    0.0000 H   0  0  0  0  0  0  0  0  0  0  0  0
    2.8660   -4.4391    0.0000 H   0  0  0  0  0  0  0  0  0  0  0  0
    1.4631   -2.0091    0.0000 H   0  0  0  0  0  0  0  0  0  0  0  0
    1.4631   -3.6291    0.0000 H   0  0  0  0  0  0  0  0  0  0  0  0
  1 17  1  0  0  0  0
  2 10  2  0  0  0  0
  3  5  1  0  0  0  0
  3 10  1  0  0  0  0
  3 31  1  0  0  0  0
  4 19  1  0  0  0  0
  4 20  1  0  0  0  0
  4 39  1  0  0  0  0
  5  6  1  0  0  0  0
  5  7  1  0  0  0  0
  5  9  1  0  0  0  0
  6  8  1  0  0  0  0
  6 25  1  0  0  0  0
  6 26  1  0  0  0  0
  7  8  1  0  0  0  0
  7 27  1  0  0  0  0
  7 28  1  0  0  0  0
  8 29  1  0  0  0  0
  8 30  1  0  0  0  0
  9 11  2  0  0  0  0
  9 12  1  0  0  0  0
 10 13  1  0  0  0  0
 11 14  1  0  0  0  0
 11 32  1  0  0  0  0
 12 15  2  0  0  0  0
 12 33  1  0  0  0  0
 13 16  1  0  0  0  0
 13 34  1  0  0  0  0
 13 35  1  0  0  0  0
 14 17  2  0  0  0  0
 14 36  1  0  0  0  0
 15 17  1  0  0  0  0
 15 37  1  0  0  0  0
 16 18  1  0  0  0  0
 16 19  2  0  0  0  0
 18 20  1  0  0  0  0
 18 21  2  0  0  0  0
 19 38  1  0  0  0  0
 20 22  2  0  0  0  0
 21 23  1  0  0  0  0
 21 40  1  0  0  0  0
 22 24  1  0  0  0  0
 22 41  1  0  0  0  0
 23 24  2  0  0  0  0
 23 42  1  0  0  0  0
 24 43  1  0  0  0  0
M  END
> <PUBCHEM_COMPOUND_CID>
56047008

> <PUBCHEM_COMPOUND_CANONICALIZED>
1

> <PUBCHEM_CACTVS_COMPLEXITY>
457

> <PUBCHEM_CACTVS_HBOND_ACCEPTOR>
1

> <PUBCHEM_CACTVS_HBOND_DONOR>
2

> <PUBCHEM_CACTVS_ROTATABLE_BOND>
4

> <PUBCHEM_CACTVS_SUBSKEYS>
AAADceB7IAAEAAAAAAAAAAAAAABgAWAAAAAwYAAAAAAAAFgB9AAAHgIQAAAADIrBniQ8wPLJkACoAzV3VACCgCAxByAI2aE4ZpgIIPLBl5GEIAhglADIyAccicCehAAAAAACAAAIAAAAAAQAAAAAAAAAAA==

> <PUBCHEM_IUPAC_OPENEYE_NAME>
N-[1-(4-chlorophenyl)cyclobutyl]-2-(1H-indol-3-yl)acetamide

> <PUBCHEM_IUPAC_CAS_NAME>
N-[1-(4-chlorophenyl)cyclobutyl]-2-(1H-indol-3-yl)acetamide

> <PUBCHEM_IUPAC_NAME>
N-[1-(4-chlorophenyl)cyclobutyl]-2-(1H-indol-3-yl)acetamide

> <PUBCHEM_IUPAC_SYSTEMATIC_NAME>
N-[1-(4-chlorophenyl)cyclobutyl]-2-(1H-indol-3-yl)ethanamide

> <PUBCHEM_IUPAC_TRADITIONAL_NAME>
N-[1-(4-chlorophenyl)cyclobutyl]-2-(1H-indol-3-yl)acetamide

> <PUBCHEM_IUPAC_INCHI>
InChI=1S/C20H19ClN2O/c21-16-8-6-15(7-9-16)20(10-3-11-20)23-19(24)12-14-13-22-18-5-2-1-4-17(14)18/h1-2,4-9,13,22H,3,10-12H2,(H,23,24)

> <PUBCHEM_IUPAC_INCHIKEY>
AKRVSKLQXCVKGN-UHFFFAOYSA-N

> <PUBCHEM_XLOGP3>
4

> <PUBCHEM_EXACT_MASS>
338.118591

> <PUBCHEM_MOLECULAR_FORMULA>
C20H19ClN2O

> <PUBCHEM_MOLECULAR_WEIGHT>
338.83066

> <PUBCHEM_OPENEYE_CAN_SMILES>
C1CC(C1)(C2=CC=C(C=C2)Cl)NC(=O)CC3=CNC4=CC=CC=C43

> <PUBCHEM_OPENEYE_ISO_SMILES>
C1CC(C1)(C2=CC=C(C=C2)Cl)NC(=O)CC3=CNC4=CC=CC=C43

> <PUBCHEM_CACTVS_TPSA>
44.9

> <PUBCHEM_MONOISOTOPIC_WEIGHT>
338.118591

> <PUBCHEM_TOTAL_CHARGE>
0

> <PUBCHEM_HEAVY_ATOM_COUNT>
24

> <PUBCHEM_ATOM_DEF_STEREO_COUNT>
0

> <PUBCHEM_ATOM_UDEF_STEREO_COUNT>
0

> <PUBCHEM_BOND_DEF_STEREO_COUNT>
0

> <PUBCHEM_BOND_UDEF_STEREO_COUNT>
0

> <PUBCHEM_ISOTOPIC_ATOM_COUNT>
0

> <PUBCHEM_COMPONENT_COUNT>
1

> <PUBCHEM_CACTVS_TAUTO_COUNT>
2

> <PUBCHEM_COORDINATE_TYPE>
1
5
255

> <PUBCHEM_BONDANNOTATIONS>
11  14  8
12  15  8
14  17  8
15  17  8
16  18  8
16  19  8
18  20  8
18  21  8
20  22  8
21  23  8
22  24  8
23  24  8
4  19  8
4  20  8
9  11  8
9  12  8

$$$$
