48914041
  -OEChem-04251305572D

 29 30  0     0  0  0  0  0  0999 V2000
    3.7320   -1.7979    0.0000 O   0  0  0  0  0  0  0  0  0  0  0  0
    3.7320    1.2021    0.0000 N   0  0  0  0  0  0  0  0  0  0  0  0
    2.8660   -0.2979    0.0000 N   0  0  0  0  0  0  0  0  0  0  0  0
    7.2622   -0.8221    0.0000 C   0  0  0  0  0  0  0  0  0  0  0  0
    6.3981   -0.3187    0.0000 C   0  0  0  0  0  0  0  0  0  0  0  0
    4.5981   -0.2979    0.0000 C   0  0  0  0  0  0  0  0  0  0  0  0
    5.4920   -0.8326    0.0000 C   0  0  0  0  0  0  0  0  0  0  0  0
    4.5981    0.7021    0.0000 C   0  0  0  0  0  0  0  0  0  0  0  0
    6.3981    0.7229    0.0000 C   0  0  0  0  0  0  0  0  0  0  0  0
    8.1301   -0.3254    0.0000 C   0  0  0  0  0  0  0  0  0  0  0  0
    7.2583   -1.8221    0.0000 C   0  0  0  0  0  0  0  0  0  0  0  0
    5.4920    1.2367    0.0000 C   0  0  0  0  0  0  0  0  0  0  0  0
    3.7320   -0.7979    0.0000 C   0  0  0  0  0  0  0  0  0  0  0  0
    2.8660    0.7021    0.0000 C   0  0  0  0  0  0  0  0  0  0  0  0
    2.0000    1.2021    0.0000 C   0  0  0  0  0  0  0  0  0  0  0  0
    6.7240   -1.1300    0.0000 H   0  0  0  0  0  0  0  0  0  0  0  0
    5.4848   -1.4526    0.0000 H   0  0  0  0  0  0  0  0  0  0  0  0
    6.9338    1.0350    0.0000 H   0  0  0  0  0  0  0  0  0  0  0  0
    8.4380   -0.8635    0.0000 H   0  0  0  0  0  0  0  0  0  0  0  0
    8.6682   -0.0175    0.0000 H   0  0  0  0  0  0  0  0  0  0  0  0
    7.8222    0.2127    0.0000 H   0  0  0  0  0  0  0  0  0  0  0  0
    6.6383   -1.8197    0.0000 H   0  0  0  0  0  0  0  0  0  0  0  0
    7.2559   -2.4421    0.0000 H   0  0  0  0  0  0  0  0  0  0  0  0
    7.8783   -1.8245    0.0000 H   0  0  0  0  0  0  0  0  0  0  0  0
    5.4848    1.8567    0.0000 H   0  0  0  0  0  0  0  0  0  0  0  0
    3.7320    1.8221    0.0000 H   0  0  0  0  0  0  0  0  0  0  0  0
    2.3100    1.7390    0.0000 H   0  0  0  0  0  0  0  0  0  0  0  0
    1.4631    1.5121    0.0000 H   0  0  0  0  0  0  0  0  0  0  0  0
    1.6900    0.6651    0.0000 H   0  0  0  0  0  0  0  0  0  0  0  0
  1 13  2  0  0  0  0
  2  8  1  0  0  0  0
  2 14  1  0  0  0  0
  2 26  1  0  0  0  0
  3 13  1  0  0  0  0
  3 14  2  0  0  0  0
  4  5  1  0  0  0  0
  4 10  1  0  0  0  0
  4 11  1  0  0  0  0
  4 16  1  0  0  0  0
  5  7  2  0  0  0  0
  5  9  1  0  0  0  0
  6  7  1  0  0  0  0
  6  8  2  0  0  0  0
  6 13  1  0  0  0  0
  7 17  1  0  0  0  0
  8 12  1  0  0  0  0
  9 12  2  0  0  0  0
  9 18  1  0  0  0  0
 10 19  1  0  0  0  0
 10 20  1  0  0  0  0
 10 21  1  0  0  0  0
 11 22  1  0  0  0  0
 11 23  1  0  0  0  0
 11 24  1  0  0  0  0
 12 25  1  0  0  0  0
 14 15  1  0  0  0  0
 15 27  1  0  0  0  0
 15 28  1  0  0  0  0
 15 29  1  0  0  0  0
M  END
> <PUBCHEM_COMPOUND_CID>
48914041

> <PUBCHEM_COMPOUND_CANONICALIZED>
1

> <PUBCHEM_CACTVS_COMPLEXITY>
296

> <PUBCHEM_CACTVS_HBOND_ACCEPTOR>
1

> <PUBCHEM_CACTVS_HBOND_DONOR>
1

> <PUBCHEM_CACTVS_ROTATABLE_BOND>
1

> <PUBCHEM_CACTVS_SUBSKEYS>
AAADccBzIAAAAAAAAAAAAAAAAAAAAAAAAAAwQAAAAAAAAACBAAAAHgAQAAAADQiBmAAzwILAAACoAidydACCAAElAgAJiAEQZMgIIDrA3ZGEIYhgkADIyccYiMCOiAACAAACAAAQAAQAAAQAAAAAAAAAAA==

> <PUBCHEM_IUPAC_OPENEYE_NAME>
6-isopropyl-2-methyl-1H-quinazolin-4-one

> <PUBCHEM_IUPAC_CAS_NAME>
2-methyl-6-propan-2-yl-1H-quinazolin-4-one

> <PUBCHEM_IUPAC_NAME>
2-methyl-6-propan-2-yl-1H-quinazolin-4-one

> <PUBCHEM_IUPAC_SYSTEMATIC_NAME>
2-methyl-6-propan-2-yl-1H-quinazolin-4-one

> <PUBCHEM_IUPAC_TRADITIONAL_NAME>
6-isopropyl-2-methyl-1H-quinazolin-4-one

> <PUBCHEM_IUPAC_INCHI>
InChI=1S/C12H14N2O/c1-7(2)9-4-5-11-10(6-9)12(15)14-8(3)13-11/h4-7H,1-3H3,(H,13,14,15)

> <PUBCHEM_IUPAC_INCHIKEY>
QOCDKQGUWKAIAD-UHFFFAOYSA-N

> <PUBCHEM_XLOGP3>
2.3

> <PUBCHEM_EXACT_MASS>
202.110613

> <PUBCHEM_MOLECULAR_FORMULA>
C12H14N2O

> <PUBCHEM_MOLECULAR_WEIGHT>
202.25236

> <PUBCHEM_OPENEYE_CAN_SMILES>
CC1=NC(=O)C2=C(N1)C=CC(=C2)C(C)C

> <PUBCHEM_OPENEYE_ISO_SMILES>
CC1=NC(=O)C2=C(N1)C=CC(=C2)C(C)C

> <PUBCHEM_CACTVS_TPSA>
41.5

> <PUBCHEM_MONOISOTOPIC_WEIGHT>
202.110613

> <PUBCHEM_TOTAL_CHARGE>
0

> <PUBCHEM_HEAVY_ATOM_COUNT>
15

> <PUBCHEM_ATOM_DEF_STEREO_COUNT>
0

> <PUBCHEM_ATOM_UDEF_STEREO_COUNT>
0

> <PUBCHEM_BOND_DEF_STEREO_COUNT>
0

> <PUBCHEM_BOND_UDEF_STEREO_COUNT>
0

> <PUBCHEM_ISOTOPIC_ATOM_COUNT>
0

> <PUBCHEM_COMPONENT_COUNT>
1

> <PUBCHEM_CACTVS_TAUTO_COUNT>
10

> <PUBCHEM_COORDINATE_TYPE>
1
5
255

> <PUBCHEM_BONDANNOTATIONS>
2  14  8
2  8  8
3  13  8
3  14  8
5  7  8
5  9  8
6  13  8
6  7  8
6  8  8
8  12  8
9  12  8

$$$$
48914306
  -OEChem-04251305572D

 32 33  0     0  0  0  0  0  0999 V2000
    4.5981   -1.7979    0.0000 O   0  0  0  0  0  0  0  0  0  0  0  0
    4.5981    1.2021    0.0000 N   0  0  0  0  0  0  0  0  0  0  0  0
    3.7320   -0.2979    0.0000 N   0  0  0  0  0  0  0  0  0  0  0  0
    8.1282   -0.8221    0.0000 C   0  0  0  0  0  0  0  0  0  0  0  0
    7.2641   -0.3187    0.0000 C   0  0  0  0  0  0  0  0  0  0  0  0
    5.4641   -0.2979    0.0000 C   0  0  0  0  0  0  0  0  0  0  0  0
    5.4641    0.7021    0.0000 C   0  0  0  0  0  0  0  0  0  0  0  0
    6.3580   -0.8326    0.0000 C   0  0  0  0  0  0  0  0  0  0  0  0
    7.2641    0.7229    0.0000 C   0  0  0  0  0  0  0  0  0  0  0  0
    6.3580    1.2367    0.0000 C   0  0  0  0  0  0  0  0  0  0  0  0
    8.9962   -0.3254    0.0000 C   0  0  0  0  0  0  0  0  0  0  0  0
    8.1244   -1.8221    0.0000 C   0  0  0  0  0  0  0  0  0  0  0  0
    3.7320    0.7021    0.0000 C   0  0  0  0  0  0  0  0  0  0  0  0
    4.5981   -0.7979    0.0000 C   0  0  0  0  0  0  0  0  0  0  0  0
    2.8660    1.2021    0.0000 C   0  0  0  0  0  0  0  0  0  0  0  0
    2.0000    0.7021    0.0000 C   0  0  0  0  0  0  0  0  0  0  0  0
    8.6639   -1.1342    0.0000 H   0  0  0  0  0  0  0  0  0  0  0  0
    6.3509   -1.4526    0.0000 H   0  0  0  0  0  0  0  0  0  0  0  0
    7.7998    1.0350    0.0000 H   0  0  0  0  0  0  0  0  0  0  0  0
    6.3509    1.8567    0.0000 H   0  0  0  0  0  0  0  0  0  0  0  0
    9.3041   -0.8635    0.0000 H   0  0  0  0  0  0  0  0  0  0  0  0
    9.5343   -0.0175    0.0000 H   0  0  0  0  0  0  0  0  0  0  0  0
    8.6882    0.2127    0.0000 H   0  0  0  0  0  0  0  0  0  0  0  0
    7.5044   -1.8197    0.0000 H   0  0  0  0  0  0  0  0  0  0  0  0
    8.1220   -2.4421    0.0000 H   0  0  0  0  0  0  0  0  0  0  0  0
    8.7443   -1.8245    0.0000 H   0  0  0  0  0  0  0  0  0  0  0  0
    4.5981    1.8221    0.0000 H   0  0  0  0  0  0  0  0  0  0  0  0
    3.2646    1.6770    0.0000 H   0  0  0  0  0  0  0  0  0  0  0  0
    2.4675    1.6770    0.0000 H   0  0  0  0  0  0  0  0  0  0  0  0
    1.6900    1.2390    0.0000 H   0  0  0  0  0  0  0  0  0  0  0  0
    1.4631    0.3921    0.0000 H   0  0  0  0  0  0  0  0  0  0  0  0
    2.3100    0.1651    0.0000 H   0  0  0  0  0  0  0  0  0  0  0  0
  1 14  2  0  0  0  0
  2  7  1  0  0  0  0
  2 13  1  0  0  0  0
  2 27  1  0  0  0  0
  3 13  2  0  0  0  0
  3 14  1  0  0  0  0
  4  5  1  0  0  0  0
  4 11  1  0  0  0  0
  4 12  1  0  0  0  0
  4 17  1  0  0  0  0
  5  8  2  0  0  0  0
  5  9  1  0  0  0  0
  6  7  2  0  0  0  0
  6  8  1  0  0  0  0
  6 14  1  0  0  0  0
  7 10  1  0  0  0  0
  8 18  1  0  0  0  0
  9 10  2  0  0  0  0
  9 19  1  0  0  0  0
 10 20  1  0  0  0  0
 11 21  1  0  0  0  0
 11 22  1  0  0  0  0
 11 23  1  0  0  0  0
 12 24  1  0  0  0  0
 12 25  1  0  0  0  0
 12 26  1  0  0  0  0
 13 15  1  0  0  0  0
 15 16  1  0  0  0  0
 15 28  1  0  0  0  0
 15 29  1  0  0  0  0
 16 30  1  0  0  0  0
 16 31  1  0  0  0  0
 16 32  1  0  0  0  0
M  END
> <PUBCHEM_COMPOUND_CID>
48914306

> <PUBCHEM_COMPOUND_CANONICALIZED>
1

> <PUBCHEM_CACTVS_COMPLEXITY>
309

> <PUBCHEM_CACTVS_HBOND_ACCEPTOR>
1

> <PUBCHEM_CACTVS_HBOND_DONOR>
1

> <PUBCHEM_CACTVS_ROTATABLE_BOND>
2

> <PUBCHEM_CACTVS_SUBSKEYS>
AAADceBzIAAAAAAAAAAAAAAAAAAAAAAAAAAwQAAAAAAAAACBAAAAHgAQAAAADQiBmAAzwILAAACoAidydACCAAElAgAJiAEwZMgIIDrA3ZGEIYhgkADIyccYiMCOiAACAAACAAAQAAQAAAQAAAAAAAAAAA==

> <PUBCHEM_IUPAC_OPENEYE_NAME>
2-ethyl-6-isopropyl-1H-quinazolin-4-one

> <PUBCHEM_IUPAC_CAS_NAME>
2-ethyl-6-propan-2-yl-1H-quinazolin-4-one

> <PUBCHEM_IUPAC_NAME>
2-ethyl-6-propan-2-yl-1H-quinazolin-4-one

> <PUBCHEM_IUPAC_SYSTEMATIC_NAME>
2-ethyl-6-propan-2-yl-1H-quinazolin-4-one

> <PUBCHEM_IUPAC_TRADITIONAL_NAME>
2-ethyl-6-isopropyl-1H-quinazolin-4-one

> <PUBCHEM_IUPAC_INCHI>
InChI=1S/C13H16N2O/c1-4-12-14-11-6-5-9(8(2)3)7-10(11)13(16)15-12/h5-8H,4H2,1-3H3,(H,14,15,16)

> <PUBCHEM_IUPAC_INCHIKEY>
PXAXMCXQSHXEQA-UHFFFAOYSA-N

> <PUBCHEM_XLOGP3>
2.8

> <PUBCHEM_EXACT_MASS>
216.126263

> <PUBCHEM_MOLECULAR_FORMULA>
C13H16N2O

> <PUBCHEM_MOLECULAR_WEIGHT>
216.27894

> <PUBCHEM_OPENEYE_CAN_SMILES>
CCC1=NC(=O)C2=C(N1)C=CC(=C2)C(C)C

> <PUBCHEM_OPENEYE_ISO_SMILES>
CCC1=NC(=O)C2=C(N1)C=CC(=C2)C(C)C

> <PUBCHEM_CACTVS_TPSA>
41.5

> <PUBCHEM_MONOISOTOPIC_WEIGHT>
216.126263

> <PUBCHEM_TOTAL_CHARGE>
0

> <PUBCHEM_HEAVY_ATOM_COUNT>
16

> <PUBCHEM_ATOM_DEF_STEREO_COUNT>
0

> <PUBCHEM_ATOM_UDEF_STEREO_COUNT>
0

> <PUBCHEM_BOND_DEF_STEREO_COUNT>
0

> <PUBCHEM_BOND_UDEF_STEREO_COUNT>
0

> <PUBCHEM_ISOTOPIC_ATOM_COUNT>
0

> <PUBCHEM_COMPONENT_COUNT>
1

> <PUBCHEM_CACTVS_TAUTO_COUNT>
12

> <PUBCHEM_COORDINATE_TYPE>
1
5
255

> <PUBCHEM_BONDANNOTATIONS>
2  13  8
2  7  8
3  13  8
3  14  8
5  8  8
5  9  8
6  14  8
6  7  8
6  8  8
7  10  8
9  10  8

$$$$
48914972
  -OEChem-04251305572D

 37 39  0     0  0  0  0  0  0999 V2000
    6.6702   -1.0065    0.0000 S   0  0  0  0  0  0  0  0  0  0  0  0
    5.6997    0.4880    0.0000 S   0  0  0  0  0  0  0  0  0  0  0  0
    2.5068    3.5411    0.0000 F   0  0  0  0  0  0  0  0  0  0  0  0
    2.0000    2.2208    0.0000 F   0  0  0  0  0  0  0  0  0  0  0  0
    3.8271    3.0343    0.0000 F   0  0  0  0  0  0  0  0  0  0  0  0
    9.2683   -3.5065    0.0000 O   0  0  0  0  0  0  0  0  0  0  0  0
   10.1343   -2.0065    0.0000 N   0  0  0  0  0  0  0  0  0  0  0  0
    9.2683   -0.5065    0.0000 N   0  0  0  0  0  0  0  0  0  0  0  0
    4.3148    1.6095    0.0000 N   0  0  0  0  0  0  0  0  0  0  0  0
    4.8907   -0.9132    0.0000 N   0  0  0  0  0  0  0  0  0  0  0  0
    4.2215   -0.1701    0.0000 N   0  0  0  0  0  0  0  0  0  0  0  0
   10.1343   -1.0065    0.0000 C   0  0  0  0  0  0  0  0  0  0  0  0
   11.0283   -2.5412    0.0000 C   0  0  0  0  0  0  0  0  0  0  0  0
    8.4023   -1.0065    0.0000 C   0  0  0  0  0  0  0  0  0  0  0  0
    9.2683   -2.5065    0.0000 C   0  0  0  0  0  0  0  0  0  0  0  0
    8.4023   -2.0065    0.0000 C   0  0  0  0  0  0  0  0  0  0  0  0
   11.0283   -0.4718    0.0000 C   0  0  0  0  0  0  0  0  0  0  0  0
   11.9344   -2.0273    0.0000 C   0  0  0  0  0  0  0  0  0  0  0  0
    7.5363   -0.5065    0.0000 C   0  0  0  0  0  0  0  0  0  0  0  0
   11.9344   -0.9857    0.0000 C   0  0  0  0  0  0  0  0  0  0  0  0
   11.0167   -3.5411    0.0000 C   0  0  0  0  0  0  0  0  0  0  0  0
    3.3203    1.7140    0.0000 C   0  0  0  0  0  0  0  0  0  0  0  0
    5.8042   -0.5065    0.0000 C   0  0  0  0  0  0  0  0  0  0  0  0
    4.7215    0.6959    0.0000 C   0  0  0  0  0  0  0  0  0  0  0  0
    2.9136    2.6276    0.0000 C   0  0  0  0  0  0  0  0  0  0  0  0
    7.8654   -2.3165    0.0000 H   0  0  0  0  0  0  0  0  0  0  0  0
   11.0211    0.1481    0.0000 H   0  0  0  0  0  0  0  0  0  0  0  0
   12.4701   -2.3394    0.0000 H   0  0  0  0  0  0  0  0  0  0  0  0
    7.9348   -0.0316    0.0000 H   0  0  0  0  0  0  0  0  0  0  0  0
    7.1377   -0.0316    0.0000 H   0  0  0  0  0  0  0  0  0  0  0  0
   12.4701   -0.6736    0.0000 H   0  0  0  0  0  0  0  0  0  0  0  0
   10.3968   -3.5339    0.0000 H   0  0  0  0  0  0  0  0  0  0  0  0
   11.0096   -4.1611    0.0000 H   0  0  0  0  0  0  0  0  0  0  0  0
   11.6367   -3.5483    0.0000 H   0  0  0  0  0  0  0  0  0  0  0  0
    2.7187    1.5640    0.0000 H   0  0  0  0  0  0  0  0  0  0  0  0
    3.3635    1.0955    0.0000 H   0  0  0  0  0  0  0  0  0  0  0  0
    4.6792    2.1111    0.0000 H   0  0  0  0  0  0  0  0  0  0  0  0
  1 19  1  0  0  0  0
  1 23  1  0  0  0  0
  2 23  1  0  0  0  0
  2 24  1  0  0  0  0
  3 25  1  0  0  0  0
  4 25  1  0  0  0  0
  5 25  1  0  0  0  0
  6 15  2  0  0  0  0
  7 12  1  0  0  0  0
  7 13  1  0  0  0  0
  7 15  1  0  0  0  0
  8 12  2  0  0  0  0
  8 14  1  0  0  0  0
  9 22  1  0  0  0  0
  9 24  1  0  0  0  0
  9 37  1  0  0  0  0
 10 11  1  0  0  0  0
 10 23  2  0  0  0  0
 11 24  2  0  0  0  0
 12 17  1  0  0  0  0
 13 18  2  0  0  0  0
 13 21  1  0  0  0  0
 14 16  2  0  0  0  0
 14 19  1  0  0  0  0
 15 16  1  0  0  0  0
 16 26  1  0  0  0  0
 17 20  2  0  0  0  0
 17 27  1  0  0  0  0
 18 20  1  0  0  0  0
 18 28  1  0  0  0  0
 19 29  1  0  0  0  0
 19 30  1  0  0  0  0
 20 31  1  0  0  0  0
 21 32  1  0  0  0  0
 21 33  1  0  0  0  0
 21 34  1  0  0  0  0
 22 25  1  0  0  0  0
 22 35  1  0  0  0  0
 22 36  1  0  0  0  0
M  END
> <PUBCHEM_COMPOUND_CID>
48914972

> <PUBCHEM_COMPOUND_CANONICALIZED>
1

> <PUBCHEM_CACTVS_COMPLEXITY>
674

> <PUBCHEM_CACTVS_HBOND_ACCEPTOR>
10

> <PUBCHEM_CACTVS_HBOND_DONOR>
1

> <PUBCHEM_CACTVS_ROTATABLE_BOND>
5

> <PUBCHEM_CACTVS_SUBSKEYS>
AAADccBzoYBgAAAAAAAAAAAAAAAAAWAAAAAgQAAAAAAAAACBgAAAHwQYAAAACAjFwBSDEAPAAAiuACdydACQAQNAAhkNCIAYAFCIAAAACQAAAAAQBAKAgUAAAAAAAAAAAAAAAAAAAAAAAAAAAAAAAAAAAA==

> <PUBCHEM_IUPAC_OPENEYE_NAME>
6-methyl-2-[[5-(2,2,2-trifluoroethylamino)-1,3,4-thiadiazol-2-yl]sulfanylmethyl]pyrido[1,2-a]pyrimidin-4-one

> <PUBCHEM_IUPAC_CAS_NAME>
6-methyl-2-[[[5-(2,2,2-trifluoroethylamino)-1,3,4-thiadiazol-2-yl]thio]methyl]-4-pyrido[1,2-a]pyrimidinone

> <PUBCHEM_IUPAC_NAME>
6-methyl-2-[[5-(2,2,2-trifluoroethylamino)-1,3,4-thiadiazol-2-yl]sulfanylmethyl]pyrido[1,2-a]pyrimidin-4-one

> <PUBCHEM_IUPAC_SYSTEMATIC_NAME>
6-methyl-2-[[5-[2,2,2-tris(fluoranyl)ethylamino]-1,3,4-thiadiazol-2-yl]sulfanylmethyl]pyrido[1,2-a]pyrimidin-4-one

> <PUBCHEM_IUPAC_TRADITIONAL_NAME>
6-methyl-2-[[[5-(2,2,2-trifluoroethylamino)-1,3,4-thiadiazol-2-yl]thio]methyl]pyrido[1,2-a]pyrimidin-4-one

> <PUBCHEM_IUPAC_INCHI>
InChI=1S/C14H12F3N5OS2/c1-8-3-2-4-10-19-9(5-11(23)22(8)10)6-24-13-21-20-12(25-13)18-7-14(15,16)17/h2-5H,6-7H2,1H3,(H,18,20)

> <PUBCHEM_IUPAC_INCHIKEY>
NPWXWZBDNQSLDU-UHFFFAOYSA-N

> <PUBCHEM_XLOGP3>
2.9

> <PUBCHEM_EXACT_MASS>
387.043537

> <PUBCHEM_MOLECULAR_FORMULA>
C14H12F3N5OS2

> <PUBCHEM_MOLECULAR_WEIGHT>
387.40319

> <PUBCHEM_OPENEYE_CAN_SMILES>
CC1=CC=CC2=NC(=CC(=O)N12)CSC3=NN=C(S3)NCC(F)(F)F

> <PUBCHEM_OPENEYE_ISO_SMILES>
CC1=CC=CC2=NC(=CC(=O)N12)CSC3=NN=C(S3)NCC(F)(F)F

> <PUBCHEM_CACTVS_TPSA>
124

> <PUBCHEM_MONOISOTOPIC_WEIGHT>
387.043537

> <PUBCHEM_TOTAL_CHARGE>
0

> <PUBCHEM_HEAVY_ATOM_COUNT>
25

> <PUBCHEM_ATOM_DEF_STEREO_COUNT>
0

> <PUBCHEM_ATOM_UDEF_STEREO_COUNT>
0

> <PUBCHEM_BOND_DEF_STEREO_COUNT>
0

> <PUBCHEM_BOND_UDEF_STEREO_COUNT>
0

> <PUBCHEM_ISOTOPIC_ATOM_COUNT>
0

> <PUBCHEM_COMPONENT_COUNT>
1

> <PUBCHEM_CACTVS_TAUTO_COUNT>
8

> <PUBCHEM_COORDINATE_TYPE>
1
5
255

> <PUBCHEM_BONDANNOTATIONS>
10  11  8
10  23  8
11  24  8
12  17  8
13  18  8
14  16  8
15  16  8
17  20  8
18  20  8
2  23  8
2  24  8
7  12  8
7  13  8
7  15  8
8  12  8
8  14  8

$$$$
