36358586
  -OEChem-10191221452D

 45 47  0     0  0  0  0  0  0999 V2000
    7.2101    2.8973    0.0000 Cl  0  0  0  0  0  0  0  0  0  0  0  0
    7.9244   -0.4923    0.0000 O   0  0  0  0  0  0  0  0  0  0  0  0
    4.6783   -3.6710    0.0000 N   0  0  0  0  0  0  0  0  0  0  0  0
    7.5673    1.2025    0.0000 N   0  0  0  0  0  0  0  0  0  0  0  0
    4.9889   -1.1110    0.0000 C   0  0  0  0  0  0  0  0  0  0  0  0
    5.9674   -0.9048    0.0000 C   0  0  0  0  0  0  0  0  0  0  0  0
    4.6783   -2.0615    0.0000 C   0  0  0  0  0  0  0  0  0  0  0  0
    6.2781    0.0458    0.0000 C   0  0  0  0  0  0  0  0  0  0  0  0
    3.7320   -2.3662    0.0000 C   0  0  0  0  0  0  0  0  0  0  0  0
    3.7320   -3.3662    0.0000 C   0  0  0  0  0  0  0  0  0  0  0  0
    5.2619   -2.8662    0.0000 C   0  0  0  0  0  0  0  0  0  0  0  0
    7.2566    0.2520    0.0000 C   0  0  0  0  0  0  0  0  0  0  0  0
    8.5458    1.4087    0.0000 C   0  0  0  0  0  0  0  0  0  0  0  0
    2.8660   -1.8662    0.0000 C   0  0  0  0  0  0  0  0  0  0  0  0
    2.8660   -3.8662    0.0000 C   0  0  0  0  0  0  0  0  0  0  0  0
    8.8564    2.3592    0.0000 C   0  0  0  0  0  0  0  0  0  0  0  0
    6.8994    1.9468    0.0000 C   0  0  0  0  0  0  0  0  0  0  0  0
    2.0000   -2.3662    0.0000 C   0  0  0  0  0  0  0  0  0  0  0  0
    2.0000   -3.3662    0.0000 C   0  0  0  0  0  0  0  0  0  0  0  0
    8.1886    3.1035    0.0000 C   0  0  0  0  0  0  0  0  0  0  0  0
    9.8349    2.5655    0.0000 C   0  0  0  0  0  0  0  0  0  0  0  0
    8.4993    4.0541    0.0000 C   0  0  0  0  0  0  0  0  0  0  0  0
   10.1456    3.5160    0.0000 C   0  0  0  0  0  0  0  0  0  0  0  0
    9.4778    4.2603    0.0000 C   0  0  0  0  0  0  0  0  0  0  0  0
    4.9684   -0.4913    0.0000 H   0  0  0  0  0  0  0  0  0  0  0  0
    4.3751   -1.0236    0.0000 H   0  0  0  0  0  0  0  0  0  0  0  0
    5.9880   -1.5244    0.0000 H   0  0  0  0  0  0  0  0  0  0  0  0
    6.5812   -0.9921    0.0000 H   0  0  0  0  0  0  0  0  0  0  0  0
    6.2575    0.6654    0.0000 H   0  0  0  0  0  0  0  0  0  0  0  0
    5.6643    0.1331    0.0000 H   0  0  0  0  0  0  0  0  0  0  0  0
    5.8819   -2.8662    0.0000 H   0  0  0  0  0  0  0  0  0  0  0  0
    4.8709   -4.2603    0.0000 H   0  0  0  0  0  0  0  0  0  0  0  0
    8.5663    0.7891    0.0000 H   0  0  0  0  0  0  0  0  0  0  0  0
    9.1596    1.3214    0.0000 H   0  0  0  0  0  0  0  0  0  0  0  0
    2.8660   -1.2462    0.0000 H   0  0  0  0  0  0  0  0  0  0  0  0
    2.8660   -4.4862    0.0000 H   0  0  0  0  0  0  0  0  0  0  0  0
    7.3609    2.3609    0.0000 H   0  0  0  0  0  0  0  0  0  0  0  0
    6.4854    2.4083    0.0000 H   0  0  0  0  0  0  0  0  0  0  0  0
    6.4380    1.5327    0.0000 H   0  0  0  0  0  0  0  0  0  0  0  0
    1.4631   -2.0562    0.0000 H   0  0  0  0  0  0  0  0  0  0  0  0
    1.4631   -3.6762    0.0000 H   0  0  0  0  0  0  0  0  0  0  0  0
   10.2490    2.1040    0.0000 H   0  0  0  0  0  0  0  0  0  0  0  0
    8.0852    4.5155    0.0000 H   0  0  0  0  0  0  0  0  0  0  0  0
   10.7523    3.6438    0.0000 H   0  0  0  0  0  0  0  0  0  0  0  0
    9.6704    4.8496    0.0000 H   0  0  0  0  0  0  0  0  0  0  0  0
  1 20  1  0  0  0  0
  2 12  2  0  0  0  0
  3 10  1  0  0  0  0
  3 11  1  0  0  0  0
  3 32  1  0  0  0  0
  4 12  1  0  0  0  0
  4 13  1  0  0  0  0
  4 17  1  0  0  0  0
  5  6  1  0  0  0  0
  5  7  1  0  0  0  0
  5 25  1  0  0  0  0
  5 26  1  0  0  0  0
  6  8  1  0  0  0  0
  6 27  1  0  0  0  0
  6 28  1  0  0  0  0
  7  9  1  0  0  0  0
  7 11  2  0  0  0  0
  8 12  1  0  0  0  0
  8 29  1  0  0  0  0
  8 30  1  0  0  0  0
  9 10  1  0  0  0  0
  9 14  2  0  0  0  0
 10 15  2  0  0  0  0
 11 31  1  0  0  0  0
 13 16  1  0  0  0  0
 13 33  1  0  0  0  0
 13 34  1  0  0  0  0
 14 18  1  0  0  0  0
 14 35  1  0  0  0  0
 15 19  1  0  0  0  0
 15 36  1  0  0  0  0
 16 20  1  0  0  0  0
 16 21  2  0  0  0  0
 17 37  1  0  0  0  0
 17 38  1  0  0  0  0
 17 39  1  0  0  0  0
 18 19  2  0  0  0  0
 18 40  1  0  0  0  0
 19 41  1  0  0  0  0
 20 22  2  0  0  0  0
 21 23  1  0  0  0  0
 21 42  1  0  0  0  0
 22 24  1  0  0  0  0
 22 43  1  0  0  0  0
 23 24  2  0  0  0  0
 23 44  1  0  0  0  0
 24 45  1  0  0  0  0
M  END
> <PUBCHEM_COMPOUND_CID>
36358586

> <PUBCHEM_COMPOUND_CANONICALIZED>
1

> <PUBCHEM_CACTVS_COMPLEXITY>
416

> <PUBCHEM_CACTVS_HBOND_ACCEPTOR>
1

> <PUBCHEM_CACTVS_HBOND_DONOR>
1

> <PUBCHEM_CACTVS_ROTATABLE_BOND>
6

> <PUBCHEM_CACTVS_SUBSKEYS>
AAADceB7IAAEAAAAAAAAAAAAAAAAAWAAAAAwYAAAAAAAAFgB9AAAHgIQAAAADArBniQ+wPPJkACoAzV3VACCgCAxByAI2aE4ZpgIIPLBk5GEIAhglgDIyAcYiMCOgAAAAAADAAAAAAAAAAYAAAAAAAAAAA==

> <PUBCHEM_IUPAC_OPENEYE_NAME>
N-[(2-chlorophenyl)methyl]-4-(1H-indol-3-yl)-N-methyl-butanamide

> <PUBCHEM_IUPAC_CAS_NAME>
N-[(2-chlorophenyl)methyl]-4-(1H-indol-3-yl)-N-methylbutanamide

> <PUBCHEM_IUPAC_NAME>
N-[(2-chlorophenyl)methyl]-4-(1H-indol-3-yl)-N-methylbutanamide

> <PUBCHEM_IUPAC_SYSTEMATIC_NAME>
N-[(2-chlorophenyl)methyl]-4-(1H-indol-3-yl)-N-methyl-butanamide

> <PUBCHEM_IUPAC_TRADITIONAL_NAME>
N-(2-chlorobenzyl)-4-(1H-indol-3-yl)-N-methyl-butyramide

> <PUBCHEM_IUPAC_INCHI>
InChI=1S/C20H21ClN2O/c1-23(14-16-7-2-4-10-18(16)21)20(24)12-6-8-15-13-22-19-11-5-3-9-17(15)19/h2-5,7,9-11,13,22H,6,8,12,14H2,1H3

> <PUBCHEM_IUPAC_INCHIKEY>
GZYXOZBIIKSZED-UHFFFAOYSA-N

> <PUBCHEM_XLOGP3>
4.4

> <PUBCHEM_EXACT_MASS>
340.134241

> <PUBCHEM_MOLECULAR_FORMULA>
C20H21ClN2O

> <PUBCHEM_MOLECULAR_WEIGHT>
340.84654

> <PUBCHEM_OPENEYE_CAN_SMILES>
CN(CC1=CC=CC=C1Cl)C(=O)CCCC2=CNC3=CC=CC=C32

> <PUBCHEM_OPENEYE_ISO_SMILES>
CN(CC1=CC=CC=C1Cl)C(=O)CCCC2=CNC3=CC=CC=C32

> <PUBCHEM_CACTVS_TPSA>
36.1

> <PUBCHEM_MONOISOTOPIC_WEIGHT>
340.134241

> <PUBCHEM_TOTAL_CHARGE>
0

> <PUBCHEM_HEAVY_ATOM_COUNT>
24

> <PUBCHEM_ATOM_DEF_STEREO_COUNT>
0

> <PUBCHEM_ATOM_UDEF_STEREO_COUNT>
0

> <PUBCHEM_BOND_DEF_STEREO_COUNT>
0

> <PUBCHEM_BOND_UDEF_STEREO_COUNT>
0

> <PUBCHEM_ISOTOPIC_ATOM_COUNT>
0

> <PUBCHEM_COMPONENT_COUNT>
1

> <PUBCHEM_CACTVS_TAUTO_COUNT>
1

> <PUBCHEM_COORDINATE_TYPE>
1
5
255

> <PUBCHEM_BONDANNOTATIONS>
10  15  8
14  18  8
15  19  8
16  20  8
16  21  8
18  19  8
20  22  8
21  23  8
22  24  8
23  24  8
3  10  8
3  11  8
7  11  8
7  9  8
9  10  8
9  14  8

$$$$
36363711
  -OEChem-10191221452D

 45 47  0     0  0  0  0  0  0999 V2000
    6.6353   -1.5076    0.0000 O   0  0  0  0  0  0  0  0  0  0  0  0
    6.2781    0.1873    0.0000 N   0  0  0  0  0  0  0  0  0  0  0  0
    4.6783   -3.5295    0.0000 N   0  0  0  0  0  0  0  0  0  0  0  0
    8.8564    2.5008    0.0000 C   0  0  0  0  0  0  0  0  0  0  0  0
    9.8080    2.8081    0.0000 C   0  0  0  0  0  0  0  0  0  0  0  0
    8.2701    3.3108    0.0000 C   0  0  0  0  0  0  0  0  0  0  0  0
    9.8098    3.8081    0.0000 C   0  0  0  0  0  0  0  0  0  0  0  0
    8.8592    4.1188    0.0000 C   0  0  0  0  0  0  0  0  0  0  0  0
    8.5458    1.5502    0.0000 C   0  0  0  0  0  0  0  0  0  0  0  0
    7.5673    1.3440    0.0000 C   0  0  0  0  0  0  0  0  0  0  0  0
    7.2566    0.3935    0.0000 C   0  0  0  0  0  0  0  0  0  0  0  0
    5.9674   -0.7633    0.0000 C   0  0  0  0  0  0  0  0  0  0  0  0
    4.9889   -0.9695    0.0000 C   0  0  0  0  0  0  0  0  0  0  0  0
    4.6783   -1.9200    0.0000 C   0  0  0  0  0  0  0  0  0  0  0  0
    3.7321   -2.2247    0.0000 C   0  0  0  0  0  0  0  0  0  0  0  0
    3.7321   -3.2247    0.0000 C   0  0  0  0  0  0  0  0  0  0  0  0
    5.2619   -2.7247    0.0000 C   0  0  0  0  0  0  0  0  0  0  0  0
    2.8660   -1.7247    0.0000 C   0  0  0  0  0  0  0  0  0  0  0  0
    2.8660   -3.7247    0.0000 C   0  0  0  0  0  0  0  0  0  0  0  0
    2.0000   -2.2247    0.0000 C   0  0  0  0  0  0  0  0  0  0  0  0
    2.0000   -3.2247    0.0000 C   0  0  0  0  0  0  0  0  0  0  0  0
    9.2941    2.0616    0.0000 H   0  0  0  0  0  0  0  0  0  0  0  0
    9.9359    2.2014    0.0000 H   0  0  0  0  0  0  0  0  0  0  0  0
   10.4247    2.8719    0.0000 H   0  0  0  0  0  0  0  0  0  0  0  0
    7.8100    3.7264    0.0000 H   0  0  0  0  0  0  0  0  0  0  0  0
    7.8086    2.8967    0.0000 H   0  0  0  0  0  0  0  0  0  0  0  0
   10.4262    3.7422    0.0000 H   0  0  0  0  0  0  0  0  0  0  0  0
    9.9397    4.4143    0.0000 H   0  0  0  0  0  0  0  0  0  0  0  0
    9.1124    4.6847    0.0000 H   0  0  0  0  0  0  0  0  0  0  0  0
    8.3228    4.4297    0.0000 H   0  0  0  0  0  0  0  0  0  0  0  0
    8.5663    0.9306    0.0000 H   0  0  0  0  0  0  0  0  0  0  0  0
    9.1596    1.4629    0.0000 H   0  0  0  0  0  0  0  0  0  0  0  0
    7.5467    1.9637    0.0000 H   0  0  0  0  0  0  0  0  0  0  0  0
    6.9535    1.4314    0.0000 H   0  0  0  0  0  0  0  0  0  0  0  0
    7.2772   -0.2262    0.0000 H   0  0  0  0  0  0  0  0  0  0  0  0
    7.8704    0.3061    0.0000 H   0  0  0  0  0  0  0  0  0  0  0  0
    5.8640    0.6487    0.0000 H   0  0  0  0  0  0  0  0  0  0  0  0
    4.9684   -0.3498    0.0000 H   0  0  0  0  0  0  0  0  0  0  0  0
    4.3751   -0.8821    0.0000 H   0  0  0  0  0  0  0  0  0  0  0  0
    5.8819   -2.7247    0.0000 H   0  0  0  0  0  0  0  0  0  0  0  0
    4.8709   -4.1188    0.0000 H   0  0  0  0  0  0  0  0  0  0  0  0
    2.8660   -1.1047    0.0000 H   0  0  0  0  0  0  0  0  0  0  0  0
    2.8660   -4.3447    0.0000 H   0  0  0  0  0  0  0  0  0  0  0  0
    1.4631   -1.9147    0.0000 H   0  0  0  0  0  0  0  0  0  0  0  0
    1.4631   -3.5347    0.0000 H   0  0  0  0  0  0  0  0  0  0  0  0
  1 12  2  0  0  0  0
  2 11  1  0  0  0  0
  2 12  1  0  0  0  0
  2 37  1  0  0  0  0
  3 16  1  0  0  0  0
  3 17  1  0  0  0  0
  3 41  1  0  0  0  0
  4  5  1  0  0  0  0
  4  6  1  0  0  0  0
  4  9  1  0  0  0  0
  4 22  1  0  0  0  0
  5  7  1  0  0  0  0
  5 23  1  0  0  0  0
  5 24  1  0  0  0  0
  6  8  1  0  0  0  0
  6 25  1  0  0  0  0
  6 26  1  0  0  0  0
  7  8  1  0  0  0  0
  7 27  1  0  0  0  0
  7 28  1  0  0  0  0
  8 29  1  0  0  0  0
  8 30  1  0  0  0  0
  9 10  1  0  0  0  0
  9 31  1  0  0  0  0
  9 32  1  0  0  0  0
 10 11  1  0  0  0  0
 10 33  1  0  0  0  0
 10 34  1  0  0  0  0
 11 35  1  0  0  0  0
 11 36  1  0  0  0  0
 12 13  1  0  0  0  0
 13 14  1  0  0  0  0
 13 38  1  0  0  0  0
 13 39  1  0  0  0  0
 14 15  1  0  0  0  0
 14 17  2  0  0  0  0
 15 16  1  0  0  0  0
 15 18  2  0  0  0  0
 16 19  2  0  0  0  0
 17 40  1  0  0  0  0
 18 20  1  0  0  0  0
 18 42  1  0  0  0  0
 19 21  1  0  0  0  0
 19 43  1  0  0  0  0
 20 21  2  0  0  0  0
 20 44  1  0  0  0  0
 21 45  1  0  0  0  0
M  END
> <PUBCHEM_COMPOUND_CID>
36363711

> <PUBCHEM_COMPOUND_CANONICALIZED>
1

> <PUBCHEM_CACTVS_COMPLEXITY>
338

> <PUBCHEM_CACTVS_HBOND_ACCEPTOR>
1

> <PUBCHEM_CACTVS_HBOND_DONOR>
2

> <PUBCHEM_CACTVS_ROTATABLE_BOND>
6

> <PUBCHEM_CACTVS_SUBSKEYS>
AAADceB7IAAAAAAAAAAAAAAAAAAAAeIAAAAwAAAAAAAAAFgB8AAAHgAQAAAADQjBngQ8wPLJkACoAzV3VACCgCAxAiAI2aE4ZJgIIPLAlZGEIAhglgDIyAccicCegAAAAAACAAAAAAAAAAQAAAAAAAAAAA==

> <PUBCHEM_IUPAC_OPENEYE_NAME>
N-(3-cyclopentylpropyl)-2-(1H-indol-3-yl)acetamide

> <PUBCHEM_IUPAC_CAS_NAME>
N-(3-cyclopentylpropyl)-2-(1H-indol-3-yl)acetamide

> <PUBCHEM_IUPAC_NAME>
N-(3-cyclopentylpropyl)-2-(1H-indol-3-yl)acetamide

> <PUBCHEM_IUPAC_SYSTEMATIC_NAME>
N-(3-cyclopentylpropyl)-2-(1H-indol-3-yl)ethanamide

> <PUBCHEM_IUPAC_TRADITIONAL_NAME>
N-(3-cyclopentylpropyl)-2-(1H-indol-3-yl)acetamide

> <PUBCHEM_IUPAC_INCHI>
InChI=1S/C18H24N2O/c21-18(19-11-5-8-14-6-1-2-7-14)12-15-13-20-17-10-4-3-9-16(15)17/h3-4,9-10,13-14,20H,1-2,5-8,11-12H2,(H,19,21)

> <PUBCHEM_IUPAC_INCHIKEY>
RVMXWVOSUCLYDT-UHFFFAOYSA-N

> <PUBCHEM_XLOGP3>
4.1

> <PUBCHEM_EXACT_MASS>
284.188863

> <PUBCHEM_MOLECULAR_FORMULA>
C18H24N2O

> <PUBCHEM_MOLECULAR_WEIGHT>
284.39596

> <PUBCHEM_OPENEYE_CAN_SMILES>
C1CCC(C1)CCCNC(=O)CC2=CNC3=CC=CC=C32

> <PUBCHEM_OPENEYE_ISO_SMILES>
C1CCC(C1)CCCNC(=O)CC2=CNC3=CC=CC=C32

> <PUBCHEM_CACTVS_TPSA>
44.9

> <PUBCHEM_MONOISOTOPIC_WEIGHT>
284.188863

> <PUBCHEM_TOTAL_CHARGE>
0

> <PUBCHEM_HEAVY_ATOM_COUNT>
21

> <PUBCHEM_ATOM_DEF_STEREO_COUNT>
0

> <PUBCHEM_ATOM_UDEF_STEREO_COUNT>
0

> <PUBCHEM_BOND_DEF_STEREO_COUNT>
0

> <PUBCHEM_BOND_UDEF_STEREO_COUNT>
0

> <PUBCHEM_ISOTOPIC_ATOM_COUNT>
0

> <PUBCHEM_COMPONENT_COUNT>
1

> <PUBCHEM_CACTVS_TAUTO_COUNT>
2

> <PUBCHEM_COORDINATE_TYPE>
1
5
255

> <PUBCHEM_BONDANNOTATIONS>
14  15  8
14  17  8
15  16  8
15  18  8
16  19  8
18  20  8
19  21  8
20  21  8
3  16  8
3  17  8

$$$$
