60262762
  -OEChem-11301218192D

 30 30  0     0  0  0  0  0  0999 V2000
    3.7320   -3.5000    0.0000 Br  0  0  0  0  0  0  0  0  0  0  0  0
    2.0000   -0.5000    0.0000 Cl  0  0  0  0  0  0  0  0  0  0  0  0
    5.4641    0.5000    0.0000 O   0  0  0  0  0  0  0  0  0  0  0  0
    4.5981    2.0000    0.0000 N   0  0  0  0  0  0  0  0  0  0  0  0
    3.7320    0.5000    0.0000 N   0  0  0  0  0  0  0  0  0  0  0  0
    5.4641    2.5000    0.0000 C   0  0  0  0  0  0  0  0  0  0  0  0
    3.7320    2.5000    0.0000 C   0  0  0  0  0  0  0  0  0  0  0  0
    4.5981    1.0000    0.0000 C   0  0  0  0  0  0  0  0  0  0  0  0
    3.7320    3.5000    0.0000 C   0  0  0  0  0  0  0  0  0  0  0  0
    5.4641    3.5000    0.0000 C   0  0  0  0  0  0  0  0  0  0  0  0
    3.7320   -0.5000    0.0000 C   0  0  0  0  0  0  0  0  0  0  0  0
    2.8660   -1.0000    0.0000 C   0  0  0  0  0  0  0  0  0  0  0  0
    4.5981   -1.0000    0.0000 C   0  0  0  0  0  0  0  0  0  0  0  0
    2.8660   -2.0000    0.0000 C   0  0  0  0  0  0  0  0  0  0  0  0
    4.5981   -2.0000    0.0000 C   0  0  0  0  0  0  0  0  0  0  0  0
    3.7320   -2.5000    0.0000 C   0  0  0  0  0  0  0  0  0  0  0  0
    5.6762    1.9174    0.0000 H   0  0  0  0  0  0  0  0  0  0  0  0
    6.0747    2.6077    0.0000 H   0  0  0  0  0  0  0  0  0  0  0  0
    3.1215    2.6077    0.0000 H   0  0  0  0  0  0  0  0  0  0  0  0
    3.5200    1.9174    0.0000 H   0  0  0  0  0  0  0  0  0  0  0  0
    6.0841    3.5000    0.0000 H   0  0  0  0  0  0  0  0  0  0  0  0
    5.4641    4.1200    0.0000 H   0  0  0  0  0  0  0  0  0  0  0  0
    4.3520    3.5000    0.0000 H   0  0  0  0  0  0  0  0  0  0  0  0
    3.7320    4.1200    0.0000 H   0  0  0  0  0  0  0  0  0  0  0  0
    3.1120    3.5000    0.0000 H   0  0  0  0  0  0  0  0  0  0  0  0
    4.8441    3.5000    0.0000 H   0  0  0  0  0  0  0  0  0  0  0  0
    3.1951    0.8100    0.0000 H   0  0  0  0  0  0  0  0  0  0  0  0
    5.1350   -0.6900    0.0000 H   0  0  0  0  0  0  0  0  0  0  0  0
    2.3291   -2.3100    0.0000 H   0  0  0  0  0  0  0  0  0  0  0  0
    5.1350   -2.3100    0.0000 H   0  0  0  0  0  0  0  0  0  0  0  0
  1 16  1  0  0  0  0
  2 12  1  0  0  0  0
  3  8  2  0  0  0  0
  4  6  1  0  0  0  0
  4  7  1  0  0  0  0
  4  8  1  0  0  0  0
  5  8  1  0  0  0  0
  5 11  1  0  0  0  0
  5 27  1  0  0  0  0
  6 10  1  0  0  0  0
  6 17  1  0  0  0  0
  6 18  1  0  0  0  0
  7  9  1  0  0  0  0
  7 19  1  0  0  0  0
  7 20  1  0  0  0  0
  9 23  1  0  0  0  0
  9 24  1  0  0  0  0
  9 25  1  0  0  0  0
 10 21  1  0  0  0  0
 10 22  1  0  0  0  0
 10 26  1  0  0  0  0
 11 12  2  0  0  0  0
 11 13  1  0  0  0  0
 12 14  1  0  0  0  0
 13 15  2  0  0  0  0
 13 28  1  0  0  0  0
 14 16  2  0  0  0  0
 14 29  1  0  0  0  0
 15 16  1  0  0  0  0
 15 30  1  0  0  0  0
M  END
> <PUBCHEM_COMPOUND_CID>
60262762

> <PUBCHEM_COMPOUND_CANONICALIZED>
1

> <PUBCHEM_CACTVS_COMPLEXITY>
236

> <PUBCHEM_CACTVS_HBOND_ACCEPTOR>
1

> <PUBCHEM_CACTVS_HBOND_DONOR>
1

> <PUBCHEM_CACTVS_ROTATABLE_BOND>
3

> <PUBCHEM_CACTVS_SUBSKEYS>
AAADccBzIAAEEAAAAAAAAAAAAAAAAAAAAAAwAAAAAAAAAAABAAAAHgJQAAABqArBECQzwIPAAACIACRCUACCAAAhBwQIiAAIZqiIICLBk5HEIAholgLIyjcQAAAAAAAgAABAABAAAEAAAIAAIAAAAAAAAA==

> <PUBCHEM_IUPAC_OPENEYE_NAME>
3-(4-bromo-2-chloro-phenyl)-1,1-diethyl-urea

> <PUBCHEM_IUPAC_CAS_NAME>
3-(4-bromo-2-chlorophenyl)-1,1-diethylurea

> <PUBCHEM_IUPAC_NAME>
3-(4-bromo-2-chlorophenyl)-1,1-diethylurea

> <PUBCHEM_IUPAC_SYSTEMATIC_NAME>
3-(4-bromanyl-2-chloranyl-phenyl)-1,1-diethyl-urea

> <PUBCHEM_IUPAC_TRADITIONAL_NAME>
3-(4-bromo-2-chloro-phenyl)-1,1-diethyl-urea

> <PUBCHEM_IUPAC_INCHI>
InChI=1S/C11H14BrClN2O/c1-3-15(4-2)11(16)14-10-6-5-8(12)7-9(10)13/h5-7H,3-4H2,1-2H3,(H,14,16)

> <PUBCHEM_IUPAC_INCHIKEY>
JUFBZLXYXXBMOK-UHFFFAOYSA-N

> <PUBCHEM_XLOGP3>
3

> <PUBCHEM_EXACT_MASS>
303.997803

> <PUBCHEM_MOLECULAR_FORMULA>
C11H14BrClN2O

> <PUBCHEM_MOLECULAR_WEIGHT>
305.59866

> <PUBCHEM_OPENEYE_CAN_SMILES>
CCN(CC)C(=O)NC1=C(C=C(C=C1)Br)Cl

> <PUBCHEM_OPENEYE_ISO_SMILES>
CCN(CC)C(=O)NC1=C(C=C(C=C1)Br)Cl

> <PUBCHEM_CACTVS_TPSA>
32.3

> <PUBCHEM_MONOISOTOPIC_WEIGHT>
303.997803

> <PUBCHEM_TOTAL_CHARGE>
0

> <PUBCHEM_HEAVY_ATOM_COUNT>
16

> <PUBCHEM_ATOM_DEF_STEREO_COUNT>
0

> <PUBCHEM_ATOM_UDEF_STEREO_COUNT>
0

> <PUBCHEM_BOND_DEF_STEREO_COUNT>
0

> <PUBCHEM_BOND_UDEF_STEREO_COUNT>
0

> <PUBCHEM_ISOTOPIC_ATOM_COUNT>
0

> <PUBCHEM_COMPONENT_COUNT>
1

> <PUBCHEM_CACTVS_TAUTO_COUNT>
2

> <PUBCHEM_COORDINATE_TYPE>
1
5
255

> <PUBCHEM_BONDANNOTATIONS>
11  12  8
11  13  8
12  14  8
13  15  8
14  16  8
15  16  8

$$$$
60273261
  -OEChem-11301218192D

 50 51  0     1  0  0  0  0  0999 V2000
    6.8994    2.2158    0.0000 O   0  0  0  0  0  0  0  0  0  0  0  0
    7.2566    0.5210    0.0000 N   0  0  0  0  0  0  0  0  0  0  0  0
    4.6783   -3.4019    0.0000 N   0  0  0  0  0  0  0  0  0  0  0  0
    8.5458    1.6778    0.0000 C   0  0  3  0  0  0  0  0  0  0  0  0
    8.8564    2.6283    0.0000 C   0  0  0  0  0  0  0  0  0  0  0  0
    9.2136    0.9335    0.0000 C   0  0  0  0  0  0  0  0  0  0  0  0
    9.8349    2.8345    0.0000 C   0  0  0  0  0  0  0  0  0  0  0  0
    7.5673    1.4715    0.0000 C   0  0  0  0  0  0  0  0  0  0  0  0
    5.9674   -0.6357    0.0000 C   0  0  0  0  0  0  0  0  0  0  0  0
    6.2781    0.3148    0.0000 C   0  0  0  0  0  0  0  0  0  0  0  0
    4.9889   -0.8419    0.0000 C   0  0  0  0  0  0  0  0  0  0  0  0
   10.1456    3.7850    0.0000 C   0  0  0  0  0  0  0  0  0  0  0  0
    4.6783   -1.7924    0.0000 C   0  0  0  0  0  0  0  0  0  0  0  0
   10.1921    1.1397    0.0000 C   0  0  0  0  0  0  0  0  0  0  0  0
    3.7320   -2.0972    0.0000 C   0  0  0  0  0  0  0  0  0  0  0  0
    3.7320   -3.0972    0.0000 C   0  0  0  0  0  0  0  0  0  0  0  0
    5.2619   -2.5972    0.0000 C   0  0  0  0  0  0  0  0  0  0  0  0
   11.1241    3.9912    0.0000 C   0  0  0  0  0  0  0  0  0  0  0  0
    2.8660   -1.5972    0.0000 C   0  0  0  0  0  0  0  0  0  0  0  0
    2.8660   -3.5972    0.0000 C   0  0  0  0  0  0  0  0  0  0  0  0
    2.0000   -2.0972    0.0000 C   0  0  0  0  0  0  0  0  0  0  0  0
    2.0000   -3.0972    0.0000 C   0  0  0  0  0  0  0  0  0  0  0  0
    8.3532    1.0884    0.0000 H   0  0  0  0  0  0  0  0  0  0  0  0
    8.8359    3.2479    0.0000 H   0  0  0  0  0  0  0  0  0  0  0  0
    8.2426    2.7156    0.0000 H   0  0  0  0  0  0  0  0  0  0  0  0
    8.6873    0.6058    0.0000 H   0  0  0  0  0  0  0  0  0  0  0  0
    9.4449    0.3582    0.0000 H   0  0  0  0  0  0  0  0  0  0  0  0
    9.8555    2.2148    0.0000 H   0  0  0  0  0  0  0  0  0  0  0  0
   10.4488    2.7472    0.0000 H   0  0  0  0  0  0  0  0  0  0  0  0
    5.9880   -1.2554    0.0000 H   0  0  0  0  0  0  0  0  0  0  0  0
    6.5812   -0.7231    0.0000 H   0  0  0  0  0  0  0  0  0  0  0  0
    6.2575    0.9345    0.0000 H   0  0  0  0  0  0  0  0  0  0  0  0
    5.6643    0.4022    0.0000 H   0  0  0  0  0  0  0  0  0  0  0  0
    4.9684   -0.2223    0.0000 H   0  0  0  0  0  0  0  0  0  0  0  0
    4.3751   -0.7546    0.0000 H   0  0  0  0  0  0  0  0  0  0  0  0
   10.1250    4.4047    0.0000 H   0  0  0  0  0  0  0  0  0  0  0  0
    9.5318    3.8724    0.0000 H   0  0  0  0  0  0  0  0  0  0  0  0
    7.6707    0.0596    0.0000 H   0  0  0  0  0  0  0  0  0  0  0  0
   10.3200    0.5330    0.0000 H   0  0  0  0  0  0  0  0  0  0  0  0
   10.7988    1.2675    0.0000 H   0  0  0  0  0  0  0  0  0  0  0  0
   10.0643    1.7464    0.0000 H   0  0  0  0  0  0  0  0  0  0  0  0
    5.8819   -2.5972    0.0000 H   0  0  0  0  0  0  0  0  0  0  0  0
   11.2520    3.3846    0.0000 H   0  0  0  0  0  0  0  0  0  0  0  0
   11.7308    4.1191    0.0000 H   0  0  0  0  0  0  0  0  0  0  0  0
   10.9963    4.5979    0.0000 H   0  0  0  0  0  0  0  0  0  0  0  0
    4.8709   -3.9912    0.0000 H   0  0  0  0  0  0  0  0  0  0  0  0
    2.8660   -0.9772    0.0000 H   0  0  0  0  0  0  0  0  0  0  0  0
    2.8660   -4.2172    0.0000 H   0  0  0  0  0  0  0  0  0  0  0  0
    1.4631   -1.7872    0.0000 H   0  0  0  0  0  0  0  0  0  0  0  0
    1.4631   -3.4072    0.0000 H   0  0  0  0  0  0  0  0  0  0  0  0
  1  8  2  0  0  0  0
  2  8  1  0  0  0  0
  2 10  1  0  0  0  0
  2 38  1  0  0  0  0
  3 16  1  0  0  0  0
  3 17  1  0  0  0  0
  3 46  1  0  0  0  0
  4  5  1  0  0  0  0
  4  6  1  0  0  0  0
  4  8  1  0  0  0  0
  4 23  1  0  0  0  0
  5  7  1  0  0  0  0
  5 24  1  0  0  0  0
  5 25  1  0  0  0  0
  6 14  1  0  0  0  0
  6 26  1  0  0  0  0
  6 27  1  0  0  0  0
  7 12  1  0  0  0  0
  7 28  1  0  0  0  0
  7 29  1  0  0  0  0
  9 10  1  0  0  0  0
  9 11  1  0  0  0  0
  9 30  1  0  0  0  0
  9 31  1  0  0  0  0
 10 32  1  0  0  0  0
 10 33  1  0  0  0  0
 11 13  1  0  0  0  0
 11 34  1  0  0  0  0
 11 35  1  0  0  0  0
 12 18  1  0  0  0  0
 12 36  1  0  0  0  0
 12 37  1  0  0  0  0
 13 15  1  0  0  0  0
 13 17  2  0  0  0  0
 14 39  1  0  0  0  0
 14 40  1  0  0  0  0
 14 41  1  0  0  0  0
 15 16  1  0  0  0  0
 15 19  2  0  0  0  0
 16 20  2  0  0  0  0
 17 42  1  0  0  0  0
 18 43  1  0  0  0  0
 18 44  1  0  0  0  0
 18 45  1  0  0  0  0
 19 21  1  0  0  0  0
 19 47  1  0  0  0  0
 20 22  1  0  0  0  0
 20 48  1  0  0  0  0
 21 22  2  0  0  0  0
 21 49  1  0  0  0  0
 22 50  1  0  0  0  0
M  END
> <PUBCHEM_COMPOUND_CID>
60273261

> <PUBCHEM_COMPOUND_CANONICALIZED>
1

> <PUBCHEM_CACTVS_COMPLEXITY>
331

> <PUBCHEM_CACTVS_HBOND_ACCEPTOR>
1

> <PUBCHEM_CACTVS_HBOND_DONOR>
2

> <PUBCHEM_CACTVS_ROTATABLE_BOND>
9

> <PUBCHEM_CACTVS_SUBSKEYS>
AAADceB7IAAAAAAAAAAAAAAAAAAAAWAAAAAwAAAAAAAAAFgB8AAAHgAQAAAADQjBngQ+wPLJkACoAzV3VACCgCAxAiAI2aE4ZJgIIPLAkZGEIAhglgDIyAcYiMAOgAAAAAACAAAAAAAAAAQAAAAAAAAAAA==

> <PUBCHEM_IUPAC_OPENEYE_NAME>
2-ethyl-N-[3-(1H-indol-3-yl)propyl]hexanamide

> <PUBCHEM_IUPAC_CAS_NAME>
2-ethyl-N-[3-(1H-indol-3-yl)propyl]hexanamide

> <PUBCHEM_IUPAC_NAME>
2-ethyl-N-[3-(1H-indol-3-yl)propyl]hexanamide

> <PUBCHEM_IUPAC_SYSTEMATIC_NAME>
2-ethyl-N-[3-(1H-indol-3-yl)propyl]hexanamide

> <PUBCHEM_IUPAC_TRADITIONAL_NAME>
2-ethyl-N-[3-(1H-indol-3-yl)propyl]hexanamide

> <PUBCHEM_IUPAC_INCHI>
InChI=1S/C19H28N2O/c1-3-5-9-15(4-2)19(22)20-13-8-10-16-14-21-18-12-7-6-11-17(16)18/h6-7,11-12,14-15,21H,3-5,8-10,13H2,1-2H3,(H,20,22)

> <PUBCHEM_IUPAC_INCHIKEY>
QWAWXXSLBOYABR-UHFFFAOYSA-N

> <PUBCHEM_XLOGP3>
5

> <PUBCHEM_EXACT_MASS>
300.220164

> <PUBCHEM_MOLECULAR_FORMULA>
C19H28N2O

> <PUBCHEM_MOLECULAR_WEIGHT>
300.43842

> <PUBCHEM_OPENEYE_CAN_SMILES>
CCCCC(CC)C(=O)NCCCC1=CNC2=CC=CC=C21

> <PUBCHEM_OPENEYE_ISO_SMILES>
CCCCC(CC)C(=O)NCCCC1=CNC2=CC=CC=C21

> <PUBCHEM_CACTVS_TPSA>
44.9

> <PUBCHEM_MONOISOTOPIC_WEIGHT>
300.220164

> <PUBCHEM_TOTAL_CHARGE>
0

> <PUBCHEM_HEAVY_ATOM_COUNT>
22

> <PUBCHEM_ATOM_DEF_STEREO_COUNT>
0

> <PUBCHEM_ATOM_UDEF_STEREO_COUNT>
1

> <PUBCHEM_BOND_DEF_STEREO_COUNT>
0

> <PUBCHEM_BOND_UDEF_STEREO_COUNT>
0

> <PUBCHEM_ISOTOPIC_ATOM_COUNT>
0

> <PUBCHEM_COMPONENT_COUNT>
1

> <PUBCHEM_CACTVS_TAUTO_COUNT>
2

> <PUBCHEM_COORDINATE_TYPE>
1
5
255

> <PUBCHEM_BONDANNOTATIONS>
13  15  8
13  17  8
15  16  8
15  19  8
16  20  8
19  21  8
20  22  8
21  22  8
3  16  8
3  17  8
4  6  3

$$$$
60273428
  -OEChem-11301218192D

 45 47  0     0  0  0  0  0  0999 V2000
   12.7705    3.4532    0.0000 Cl  0  0  0  0  0  0  0  0  0  0  0  0
    6.8994    2.2158    0.0000 O   0  0  0  0  0  0  0  0  0  0  0  0
    4.6783   -3.4019    0.0000 N   0  0  0  0  0  0  0  0  0  0  0  0
    7.2566    0.5210    0.0000 N   0  0  0  0  0  0  0  0  0  0  0  0
    4.9889   -0.8419    0.0000 C   0  0  0  0  0  0  0  0  0  0  0  0
    4.6783   -1.7924    0.0000 C   0  0  0  0  0  0  0  0  0  0  0  0
    5.9674   -0.6357    0.0000 C   0  0  0  0  0  0  0  0  0  0  0  0
    3.7320   -2.0972    0.0000 C   0  0  0  0  0  0  0  0  0  0  0  0
    6.2781    0.3148    0.0000 C   0  0  0  0  0  0  0  0  0  0  0  0
    3.7320   -3.0972    0.0000 C   0  0  0  0  0  0  0  0  0  0  0  0
    5.2619   -2.5972    0.0000 C   0  0  0  0  0  0  0  0  0  0  0  0
    2.8660   -1.5972    0.0000 C   0  0  0  0  0  0  0  0  0  0  0  0
    8.5458    1.6778    0.0000 C   0  0  0  0  0  0  0  0  0  0  0  0
    8.8564    2.6283    0.0000 C   0  0  0  0  0  0  0  0  0  0  0  0
    2.8660   -3.5972    0.0000 C   0  0  0  0  0  0  0  0  0  0  0  0
    7.5673    1.4715    0.0000 C   0  0  0  0  0  0  0  0  0  0  0  0
    2.0000   -2.0972    0.0000 C   0  0  0  0  0  0  0  0  0  0  0  0
    9.8349    2.8345    0.0000 C   0  0  0  0  0  0  0  0  0  0  0  0
    2.0000   -3.0972    0.0000 C   0  0  0  0  0  0  0  0  0  0  0  0
   10.5028    2.0902    0.0000 C   0  0  0  0  0  0  0  0  0  0  0  0
   10.1456    3.7850    0.0000 C   0  0  0  0  0  0  0  0  0  0  0  0
   11.4813    2.2964    0.0000 C   0  0  0  0  0  0  0  0  0  0  0  0
   11.1241    3.9912    0.0000 C   0  0  0  0  0  0  0  0  0  0  0  0
   11.7920    3.2469    0.0000 C   0  0  0  0  0  0  0  0  0  0  0  0
    4.9684   -0.2223    0.0000 H   0  0  0  0  0  0  0  0  0  0  0  0
    4.3751   -0.7546    0.0000 H   0  0  0  0  0  0  0  0  0  0  0  0
    5.9880   -1.2554    0.0000 H   0  0  0  0  0  0  0  0  0  0  0  0
    6.5812   -0.7231    0.0000 H   0  0  0  0  0  0  0  0  0  0  0  0
    6.2575    0.9345    0.0000 H   0  0  0  0  0  0  0  0  0  0  0  0
    5.6643    0.4022    0.0000 H   0  0  0  0  0  0  0  0  0  0  0  0
    5.8819   -2.5972    0.0000 H   0  0  0  0  0  0  0  0  0  0  0  0
    4.8709   -3.9912    0.0000 H   0  0  0  0  0  0  0  0  0  0  0  0
    7.6707    0.0596    0.0000 H   0  0  0  0  0  0  0  0  0  0  0  0
    2.8660   -0.9772    0.0000 H   0  0  0  0  0  0  0  0  0  0  0  0
    8.5663    1.0581    0.0000 H   0  0  0  0  0  0  0  0  0  0  0  0
    9.1596    1.5904    0.0000 H   0  0  0  0  0  0  0  0  0  0  0  0
    8.8359    3.2479    0.0000 H   0  0  0  0  0  0  0  0  0  0  0  0
    8.2426    2.7156    0.0000 H   0  0  0  0  0  0  0  0  0  0  0  0
    2.8660   -4.2172    0.0000 H   0  0  0  0  0  0  0  0  0  0  0  0
    1.4631   -1.7872    0.0000 H   0  0  0  0  0  0  0  0  0  0  0  0
    1.4631   -3.4072    0.0000 H   0  0  0  0  0  0  0  0  0  0  0  0
   10.3102    1.5009    0.0000 H   0  0  0  0  0  0  0  0  0  0  0  0
    9.7315    4.2465    0.0000 H   0  0  0  0  0  0  0  0  0  0  0  0
   11.8954    1.8350    0.0000 H   0  0  0  0  0  0  0  0  0  0  0  0
   11.3167    4.5806    0.0000 H   0  0  0  0  0  0  0  0  0  0  0  0
  1 24  1  0  0  0  0
  2 16  2  0  0  0  0
  3 10  1  0  0  0  0
  3 11  1  0  0  0  0
  3 32  1  0  0  0  0
  4  9  1  0  0  0  0
  4 16  1  0  0  0  0
  4 33  1  0  0  0  0
  5  6  1  0  0  0  0
  5  7  1  0  0  0  0
  5 25  1  0  0  0  0
  5 26  1  0  0  0  0
  6  8  1  0  0  0  0
  6 11  2  0  0  0  0
  7  9  1  0  0  0  0
  7 27  1  0  0  0  0
  7 28  1  0  0  0  0
  8 10  1  0  0  0  0
  8 12  2  0  0  0  0
  9 29  1  0  0  0  0
  9 30  1  0  0  0  0
 10 15  2  0  0  0  0
 11 31  1  0  0  0  0
 12 17  1  0  0  0  0
 12 34  1  0  0  0  0
 13 14  1  0  0  0  0
 13 16  1  0  0  0  0
 13 35  1  0  0  0  0
 13 36  1  0  0  0  0
 14 18  1  0  0  0  0
 14 37  1  0  0  0  0
 14 38  1  0  0  0  0
 15 19  1  0  0  0  0
 15 39  1  0  0  0  0
 17 19  2  0  0  0  0
 17 40  1  0  0  0  0
 18 20  2  0  0  0  0
 18 21  1  0  0  0  0
 19 41  1  0  0  0  0
 20 22  1  0  0  0  0
 20 42  1  0  0  0  0
 21 23  2  0  0  0  0
 21 43  1  0  0  0  0
 22 24  2  0  0  0  0
 22 44  1  0  0  0  0
 23 24  1  0  0  0  0
 23 45  1  0  0  0  0
M  END
> <PUBCHEM_COMPOUND_CID>
60273428

> <PUBCHEM_COMPOUND_CANONICALIZED>
1

> <PUBCHEM_CACTVS_COMPLEXITY>
395

> <PUBCHEM_CACTVS_HBOND_ACCEPTOR>
1

> <PUBCHEM_CACTVS_HBOND_DONOR>
2

> <PUBCHEM_CACTVS_ROTATABLE_BOND>
7

> <PUBCHEM_CACTVS_SUBSKEYS>
AAADceB7IAAEAAAAAAAAAAAAAAAAAWAAAAAwYAAAAAAAAFgB9AAAHgIQAAAADArBniQ8wPLJkACoAzV3VACCgCAxByAI2aE4ZpgIIPLBk5GEIAhglgDIyAcYiMCOhAAAAAACAAAIAAAAAAQAAAAAAAAAAA==

> <PUBCHEM_IUPAC_OPENEYE_NAME>
3-(4-chlorophenyl)-N-[3-(1H-indol-3-yl)propyl]propanamide

> <PUBCHEM_IUPAC_CAS_NAME>
3-(4-chlorophenyl)-N-[3-(1H-indol-3-yl)propyl]propanamide

> <PUBCHEM_IUPAC_NAME>
3-(4-chlorophenyl)-N-[3-(1H-indol-3-yl)propyl]propanamide

> <PUBCHEM_IUPAC_SYSTEMATIC_NAME>
3-(4-chlorophenyl)-N-[3-(1H-indol-3-yl)propyl]propanamide

> <PUBCHEM_IUPAC_TRADITIONAL_NAME>
3-(4-chlorophenyl)-N-[3-(1H-indol-3-yl)propyl]propionamide

> <PUBCHEM_IUPAC_INCHI>
InChI=1S/C20H21ClN2O/c21-17-10-7-15(8-11-17)9-12-20(24)22-13-3-4-16-14-23-19-6-2-1-5-18(16)19/h1-2,5-8,10-11,14,23H,3-4,9,12-13H2,(H,22,24)

> <PUBCHEM_IUPAC_INCHIKEY>
FKPKNIVCZJYRPG-UHFFFAOYSA-N

> <PUBCHEM_XLOGP3>
4.4

> <PUBCHEM_EXACT_MASS>
340.134241

> <PUBCHEM_MOLECULAR_FORMULA>
C20H21ClN2O

> <PUBCHEM_MOLECULAR_WEIGHT>
340.84654

> <PUBCHEM_OPENEYE_CAN_SMILES>
C1=CC=C2C(=C1)C(=CN2)CCCNC(=O)CCC3=CC=C(C=C3)Cl

> <PUBCHEM_OPENEYE_ISO_SMILES>
C1=CC=C2C(=C1)C(=CN2)CCCNC(=O)CCC3=CC=C(C=C3)Cl

> <PUBCHEM_CACTVS_TPSA>
44.9

> <PUBCHEM_MONOISOTOPIC_WEIGHT>
340.134241

> <PUBCHEM_TOTAL_CHARGE>
0

> <PUBCHEM_HEAVY_ATOM_COUNT>
24

> <PUBCHEM_ATOM_DEF_STEREO_COUNT>
0

> <PUBCHEM_ATOM_UDEF_STEREO_COUNT>
0

> <PUBCHEM_BOND_DEF_STEREO_COUNT>
0

> <PUBCHEM_BOND_UDEF_STEREO_COUNT>
0

> <PUBCHEM_ISOTOPIC_ATOM_COUNT>
0

> <PUBCHEM_COMPONENT_COUNT>
1

> <PUBCHEM_CACTVS_TAUTO_COUNT>
2

> <PUBCHEM_COORDINATE_TYPE>
1
5
255

> <PUBCHEM_BONDANNOTATIONS>
10  15  8
12  17  8
15  19  8
17  19  8
18  20  8
18  21  8
20  22  8
21  23  8
22  24  8
23  24  8
3  10  8
3  11  8
6  11  8
6  8  8
8  10  8
8  12  8

$$$$
60273634
  -OEChem-11301218192D

 45 47  0     0  0  0  0  0  0999 V2000
    6.8994    1.9468    0.0000 O   0  0  0  0  0  0  0  0  0  0  0  0
    4.6783   -3.6710    0.0000 N   0  0  0  0  0  0  0  0  0  0  0  0
    7.2566    0.2520    0.0000 N   0  0  0  0  0  0  0  0  0  0  0  0
    4.9889   -1.1110    0.0000 C   0  0  0  0  0  0  0  0  0  0  0  0
    4.6783   -2.0615    0.0000 C   0  0  0  0  0  0  0  0  0  0  0  0
    5.9674   -0.9048    0.0000 C   0  0  0  0  0  0  0  0  0  0  0  0
    3.7320   -2.3662    0.0000 C   0  0  0  0  0  0  0  0  0  0  0  0
    6.2781    0.0458    0.0000 C   0  0  0  0  0  0  0  0  0  0  0  0
    3.7320   -3.3662    0.0000 C   0  0  0  0  0  0  0  0  0  0  0  0
    5.2619   -2.8662    0.0000 C   0  0  0  0  0  0  0  0  0  0  0  0
    2.8660   -1.8662    0.0000 C   0  0  0  0  0  0  0  0  0  0  0  0
    2.8660   -3.8662    0.0000 C   0  0  0  0  0  0  0  0  0  0  0  0
    8.5458    1.4087    0.0000 C   0  0  0  0  0  0  0  0  0  0  0  0
    7.5673    1.2025    0.0000 C   0  0  0  0  0  0  0  0  0  0  0  0
    2.0000   -2.3662    0.0000 C   0  0  0  0  0  0  0  0  0  0  0  0
    2.0000   -3.3662    0.0000 C   0  0  0  0  0  0  0  0  0  0  0  0
    8.8564    2.3592    0.0000 C   0  0  0  0  0  0  0  0  0  0  0  0
    9.8349    2.5655    0.0000 C   0  0  0  0  0  0  0  0  0  0  0  0
    8.1886    3.1035    0.0000 C   0  0  0  0  0  0  0  0  0  0  0  0
   10.1456    3.5160    0.0000 C   0  0  0  0  0  0  0  0  0  0  0  0
    8.4993    4.0541    0.0000 C   0  0  0  0  0  0  0  0  0  0  0  0
    9.4778    4.2603    0.0000 C   0  0  0  0  0  0  0  0  0  0  0  0
   11.1241    3.7222    0.0000 C   0  0  0  0  0  0  0  0  0  0  0  0
    4.9684   -0.4913    0.0000 H   0  0  0  0  0  0  0  0  0  0  0  0
    4.3751   -1.0236    0.0000 H   0  0  0  0  0  0  0  0  0  0  0  0
    5.9880   -1.5244    0.0000 H   0  0  0  0  0  0  0  0  0  0  0  0
    6.5812   -0.9921    0.0000 H   0  0  0  0  0  0  0  0  0  0  0  0
    6.2575    0.6654    0.0000 H   0  0  0  0  0  0  0  0  0  0  0  0
    5.6643    0.1331    0.0000 H   0  0  0  0  0  0  0  0  0  0  0  0
    5.8819   -2.8662    0.0000 H   0  0  0  0  0  0  0  0  0  0  0  0
    4.8709   -4.2603    0.0000 H   0  0  0  0  0  0  0  0  0  0  0  0
    2.8660   -1.2462    0.0000 H   0  0  0  0  0  0  0  0  0  0  0  0
    7.6707   -0.2095    0.0000 H   0  0  0  0  0  0  0  0  0  0  0  0
    2.8660   -4.4862    0.0000 H   0  0  0  0  0  0  0  0  0  0  0  0
    8.5663    0.7891    0.0000 H   0  0  0  0  0  0  0  0  0  0  0  0
    9.1596    1.3214    0.0000 H   0  0  0  0  0  0  0  0  0  0  0  0
    1.4631   -2.0562    0.0000 H   0  0  0  0  0  0  0  0  0  0  0  0
    1.4631   -3.6762    0.0000 H   0  0  0  0  0  0  0  0  0  0  0  0
   10.2490    2.1040    0.0000 H   0  0  0  0  0  0  0  0  0  0  0  0
    7.5819    2.9757    0.0000 H   0  0  0  0  0  0  0  0  0  0  0  0
    9.6704    4.8496    0.0000 H   0  0  0  0  0  0  0  0  0  0  0  0
    8.0852    4.5155    0.0000 H   0  0  0  0  0  0  0  0  0  0  0  0
   11.2520    3.1155    0.0000 H   0  0  0  0  0  0  0  0  0  0  0  0
   11.7308    3.8501    0.0000 H   0  0  0  0  0  0  0  0  0  0  0  0
   10.9963    4.3289    0.0000 H   0  0  0  0  0  0  0  0  0  0  0  0
  1 14  2  0  0  0  0
  2  9  1  0  0  0  0
  2 10  1  0  0  0  0
  2 31  1  0  0  0  0
  3  8  1  0  0  0  0
  3 14  1  0  0  0  0
  3 33  1  0  0  0  0
  4  5  1  0  0  0  0
  4  6  1  0  0  0  0
  4 24  1  0  0  0  0
  4 25  1  0  0  0  0
  5  7  1  0  0  0  0
  5 10  2  0  0  0  0
  6  8  1  0  0  0  0
  6 26  1  0  0  0  0
  6 27  1  0  0  0  0
  7  9  1  0  0  0  0
  7 11  2  0  0  0  0
  8 28  1  0  0  0  0
  8 29  1  0  0  0  0
  9 12  2  0  0  0  0
 10 30  1  0  0  0  0
 11 15  1  0  0  0  0
 11 32  1  0  0  0  0
 12 16  1  0  0  0  0
 12 34  1  0  0  0  0
 13 14  1  0  0  0  0
 13 17  1  0  0  0  0
 13 35  1  0  0  0  0
 13 36  1  0  0  0  0
 15 16  2  0  0  0  0
 15 37  1  0  0  0  0
 16 38  1  0  0  0  0
 17 18  1  0  0  0  0
 17 19  2  0  0  0  0
 18 20  2  0  0  0  0
 18 39  1  0  0  0  0
 19 21  1  0  0  0  0
 19 40  1  0  0  0  0
 20 22  1  0  0  0  0
 20 23  1  0  0  0  0
 21 22  2  0  0  0  0
 21 42  1  0  0  0  0
 22 41  1  0  0  0  0
 23 43  1  0  0  0  0
 23 44  1  0  0  0  0
 23 45  1  0  0  0  0
M  END
> <PUBCHEM_COMPOUND_CID>
60273634

> <PUBCHEM_COMPOUND_CANONICALIZED>
1

> <PUBCHEM_CACTVS_COMPLEXITY>
384

> <PUBCHEM_CACTVS_HBOND_ACCEPTOR>
1

> <PUBCHEM_CACTVS_HBOND_DONOR>
2

> <PUBCHEM_CACTVS_ROTATABLE_BOND>
6

> <PUBCHEM_CACTVS_SUBSKEYS>
AAADceB7IAAAAAAAAAAAAAAAAAAAAWAAAAAwYAAAAAAAAFgB9AAAHgAQAAAADAjBngQ+wPLJkACoAzV3VACCgCAxAiAI2aE4ZJgIIPLAlZGEIAhglgDIyAcYiMCOgAACAAACAAAAAAQAAAQAAAAAAAAAAA==

> <PUBCHEM_IUPAC_OPENEYE_NAME>
N-[3-(1H-indol-3-yl)propyl]-2-(m-tolyl)acetamide

> <PUBCHEM_IUPAC_CAS_NAME>
N-[3-(1H-indol-3-yl)propyl]-2-(3-methylphenyl)acetamide

> <PUBCHEM_IUPAC_NAME>
N-[3-(1H-indol-3-yl)propyl]-2-(3-methylphenyl)acetamide

> <PUBCHEM_IUPAC_SYSTEMATIC_NAME>
N-[3-(1H-indol-3-yl)propyl]-2-(3-methylphenyl)ethanamide

> <PUBCHEM_IUPAC_TRADITIONAL_NAME>
N-[3-(1H-indol-3-yl)propyl]-2-(m-tolyl)acetamide

> <PUBCHEM_IUPAC_INCHI>
InChI=1S/C20H22N2O/c1-15-6-4-7-16(12-15)13-20(23)21-11-5-8-17-14-22-19-10-3-2-9-18(17)19/h2-4,6-7,9-10,12,14,22H,5,8,11,13H2,1H3,(H,21,23)

> <PUBCHEM_IUPAC_INCHIKEY>
VJKOSIBYDSOYRY-UHFFFAOYSA-N

> <PUBCHEM_XLOGP3>
4.1

> <PUBCHEM_EXACT_MASS>
306.173213

> <PUBCHEM_MOLECULAR_FORMULA>
C20H22N2O

> <PUBCHEM_MOLECULAR_WEIGHT>
306.40148

> <PUBCHEM_OPENEYE_CAN_SMILES>
CC1=CC(=CC=C1)CC(=O)NCCCC2=CNC3=CC=CC=C32

> <PUBCHEM_OPENEYE_ISO_SMILES>
CC1=CC(=CC=C1)CC(=O)NCCCC2=CNC3=CC=CC=C32

> <PUBCHEM_CACTVS_TPSA>
44.9

> <PUBCHEM_MONOISOTOPIC_WEIGHT>
306.173213

> <PUBCHEM_TOTAL_CHARGE>
0

> <PUBCHEM_HEAVY_ATOM_COUNT>
23

> <PUBCHEM_ATOM_DEF_STEREO_COUNT>
0

> <PUBCHEM_ATOM_UDEF_STEREO_COUNT>
0

> <PUBCHEM_BOND_DEF_STEREO_COUNT>
0

> <PUBCHEM_BOND_UDEF_STEREO_COUNT>
0

> <PUBCHEM_ISOTOPIC_ATOM_COUNT>
0

> <PUBCHEM_COMPONENT_COUNT>
1

> <PUBCHEM_CACTVS_TAUTO_COUNT>
2

> <PUBCHEM_COORDINATE_TYPE>
1
5
255

> <PUBCHEM_BONDANNOTATIONS>
11  15  8
12  16  8
15  16  8
17  18  8
17  19  8
18  20  8
19  21  8
2  10  8
2  9  8
20  22  8
21  22  8
5  10  8
5  7  8
7  11  8
7  9  8
9  12  8

$$$$
60274770
  -OEChem-11301218192D

 40 41  0     0  0  0  0  0  0999 V2000
    7.1962    0.0000    0.0000 O   0  0  0  0  0  0  0  0  0  0  0  0
    6.3301    1.5000    0.0000 N   0  0  0  0  0  0  0  0  0  0  0  0
    5.4641    0.0000    0.0000 N   0  0  0  0  0  0  0  0  0  0  0  0
    7.1962    2.0000    0.0000 C   0  0  0  0  0  0  0  0  0  0  0  0
    5.4641    2.0000    0.0000 C   0  0  0  0  0  0  0  0  0  0  0  0
    5.4641   -1.0000    0.0000 C   0  0  0  0  0  0  0  0  0  0  0  0
    4.5981   -1.5000    0.0000 C   0  0  0  0  0  0  0  0  0  0  0  0
    6.3301    0.5000    0.0000 C   0  0  0  0  0  0  0  0  0  0  0  0
    3.7320   -1.0000    0.0000 C   0  0  0  0  0  0  0  0  0  0  0  0
    6.3301   -1.5000    0.0000 C   0  0  0  0  0  0  0  0  0  0  0  0
    5.4641    3.0000    0.0000 C   0  0  0  0  0  0  0  0  0  0  0  0
    7.1962    3.0000    0.0000 C   0  0  0  0  0  0  0  0  0  0  0  0
    4.5981   -2.5000    0.0000 C   0  0  0  0  0  0  0  0  0  0  0  0
    6.3301   -2.5000    0.0000 C   0  0  0  0  0  0  0  0  0  0  0  0
    5.4641   -3.0000    0.0000 C   0  0  0  0  0  0  0  0  0  0  0  0
    2.8660   -1.5000    0.0000 C   0  0  0  0  0  0  0  0  0  0  0  0
    3.7320    0.0000    0.0000 C   0  0  0  0  0  0  0  0  0  0  0  0
    2.0000   -1.0000    0.0000 C   0  0  0  0  0  0  0  0  0  0  0  0
    2.8660    0.5000    0.0000 C   0  0  0  0  0  0  0  0  0  0  0  0
    2.0000    0.0000    0.0000 C   0  0  0  0  0  0  0  0  0  0  0  0
    7.4082    1.4174    0.0000 H   0  0  0  0  0  0  0  0  0  0  0  0
    7.8067    2.1077    0.0000 H   0  0  0  0  0  0  0  0  0  0  0  0
    4.8535    2.1077    0.0000 H   0  0  0  0  0  0  0  0  0  0  0  0
    5.2520    1.4174    0.0000 H   0  0  0  0  0  0  0  0  0  0  0  0
    4.9272    0.3100    0.0000 H   0  0  0  0  0  0  0  0  0  0  0  0
    6.8671   -1.1900    0.0000 H   0  0  0  0  0  0  0  0  0  0  0  0
    6.0841    3.0000    0.0000 H   0  0  0  0  0  0  0  0  0  0  0  0
    7.8162    3.0000    0.0000 H   0  0  0  0  0  0  0  0  0  0  0  0
    7.1962    3.6200    0.0000 H   0  0  0  0  0  0  0  0  0  0  0  0
    6.5762    3.0000    0.0000 H   0  0  0  0  0  0  0  0  0  0  0  0
    5.4641    3.6200    0.0000 H   0  0  0  0  0  0  0  0  0  0  0  0
    4.8441    3.0000    0.0000 H   0  0  0  0  0  0  0  0  0  0  0  0
    4.0611   -2.8100    0.0000 H   0  0  0  0  0  0  0  0  0  0  0  0
    6.8671   -2.8100    0.0000 H   0  0  0  0  0  0  0  0  0  0  0  0
    5.4641   -3.6200    0.0000 H   0  0  0  0  0  0  0  0  0  0  0  0
    2.8660   -2.1200    0.0000 H   0  0  0  0  0  0  0  0  0  0  0  0
    4.2690    0.3100    0.0000 H   0  0  0  0  0  0  0  0  0  0  0  0
    1.4631   -1.3100    0.0000 H   0  0  0  0  0  0  0  0  0  0  0  0
    2.8660    1.1200    0.0000 H   0  0  0  0  0  0  0  0  0  0  0  0
    1.4631    0.3100    0.0000 H   0  0  0  0  0  0  0  0  0  0  0  0
  1  8  2  0  0  0  0
  2  4  1  0  0  0  0
  2  5  1  0  0  0  0
  2  8  1  0  0  0  0
  3  6  1  0  0  0  0
  3  8  1  0  0  0  0
  3 25  1  0  0  0  0
  4 12  1  0  0  0  0
  4 21  1  0  0  0  0
  4 22  1  0  0  0  0
  5 11  1  0  0  0  0
  5 23  1  0  0  0  0
  5 24  1  0  0  0  0
  6  7  1  0  0  0  0
  6 10  2  0  0  0  0
  7  9  1  0  0  0  0
  7 13  2  0  0  0  0
  9 16  2  0  0  0  0
  9 17  1  0  0  0  0
 10 14  1  0  0  0  0
 10 26  1  0  0  0  0
 11 27  1  0  0  0  0
 11 31  1  0  0  0  0
 11 32  1  0  0  0  0
 12 28  1  0  0  0  0
 12 29  1  0  0  0  0
 12 30  1  0  0  0  0
 13 15  1  0  0  0  0
 13 33  1  0  0  0  0
 14 15  2  0  0  0  0
 14 34  1  0  0  0  0
 15 35  1  0  0  0  0
 16 18  1  0  0  0  0
 16 36  1  0  0  0  0
 17 19  2  0  0  0  0
 17 37  1  0  0  0  0
 18 20  2  0  0  0  0
 18 38  1  0  0  0  0
 19 20  1  0  0  0  0
 19 39  1  0  0  0  0
 20 40  1  0  0  0  0
M  END
> <PUBCHEM_COMPOUND_CID>
60274770

> <PUBCHEM_COMPOUND_CANONICALIZED>
1

> <PUBCHEM_CACTVS_COMPLEXITY>
295

> <PUBCHEM_CACTVS_HBOND_ACCEPTOR>
1

> <PUBCHEM_CACTVS_HBOND_DONOR>
1

> <PUBCHEM_CACTVS_ROTATABLE_BOND>
4

> <PUBCHEM_CACTVS_SUBSKEYS>
AAADceB7IAAAAAAAAAAAAAAAAAAAAAAAAAAwYAAAAAAAAAABQAAAHgAQAAAADAjBGAQzwIPAAACIAiRCUACCAAAhAgAIiAAIZIiIICLAkZGEIAholgLIyCcQgMAOgAAAAAACAAAAAAAAAAQAAAAAAAAAAA==

> <PUBCHEM_IUPAC_OPENEYE_NAME>
1,1-diethyl-3-(2-phenylphenyl)urea

> <PUBCHEM_IUPAC_CAS_NAME>
1,1-diethyl-3-(2-phenylphenyl)urea

> <PUBCHEM_IUPAC_NAME>
1,1-diethyl-3-(2-phenylphenyl)urea

> <PUBCHEM_IUPAC_SYSTEMATIC_NAME>
1,1-diethyl-3-(2-phenylphenyl)urea

> <PUBCHEM_IUPAC_TRADITIONAL_NAME>
1,1-diethyl-3-(2-phenylphenyl)urea

> <PUBCHEM_IUPAC_INCHI>
InChI=1S/C17H20N2O/c1-3-19(4-2)17(20)18-16-13-9-8-12-15(16)14-10-6-5-7-11-14/h5-13H,3-4H2,1-2H3,(H,18,20)

> <PUBCHEM_IUPAC_INCHIKEY>
WMQUKCPQXGPIME-UHFFFAOYSA-N

> <PUBCHEM_XLOGP3>
2.8

> <PUBCHEM_EXACT_MASS>
268.157563

> <PUBCHEM_MOLECULAR_FORMULA>
C17H20N2O

> <PUBCHEM_MOLECULAR_WEIGHT>
268.3535

> <PUBCHEM_OPENEYE_CAN_SMILES>
CCN(CC)C(=O)NC1=CC=CC=C1C2=CC=CC=C2

> <PUBCHEM_OPENEYE_ISO_SMILES>
CCN(CC)C(=O)NC1=CC=CC=C1C2=CC=CC=C2

> <PUBCHEM_CACTVS_TPSA>
32.3

> <PUBCHEM_MONOISOTOPIC_WEIGHT>
268.157563

> <PUBCHEM_TOTAL_CHARGE>
0

> <PUBCHEM_HEAVY_ATOM_COUNT>
20

> <PUBCHEM_ATOM_DEF_STEREO_COUNT>
0

> <PUBCHEM_ATOM_UDEF_STEREO_COUNT>
0

> <PUBCHEM_BOND_DEF_STEREO_COUNT>
0

> <PUBCHEM_BOND_UDEF_STEREO_COUNT>
0

> <PUBCHEM_ISOTOPIC_ATOM_COUNT>
0

> <PUBCHEM_COMPONENT_COUNT>
1

> <PUBCHEM_CACTVS_TAUTO_COUNT>
2

> <PUBCHEM_COORDINATE_TYPE>
1
5
255

> <PUBCHEM_BONDANNOTATIONS>
10  14  8
13  15  8
14  15  8
16  18  8
17  19  8
18  20  8
19  20  8
6  10  8
6  7  8
7  13  8
9  16  8
9  17  8

$$$$
60274797
  -OEChem-11301218192D

 41 43  0     0  0  0  0  0  0999 V2000
    8.3987   -1.3027    0.0000 O   0  0  0  0  0  0  0  0  0  0  0  0
    8.0321    0.3901    0.0000 N   0  0  0  0  0  0  0  0  0  0  0  0
    9.6814   -0.1388    0.0000 N   0  0  0  0  0  0  0  0  0  0  0  0
    5.3364    0.7149    0.0000 C   0  0  0  0  0  0  0  0  0  0  0  0
    4.5274    1.3027    0.0000 C   0  0  0  0  0  0  0  0  0  0  0  0
    5.0274   -0.2362    0.0000 C   0  0  0  0  0  0  0  0  0  0  0  0
    3.7183    0.7149    0.0000 C   0  0  0  0  0  0  0  0  0  0  0  0
    4.0274   -0.2362    0.0000 C   0  0  0  0  0  0  0  0  0  0  0  0
    6.3518    0.9471    0.0000 C   0  0  0  0  0  0  0  0  0  0  0  0
    5.7123   -1.0209    0.0000 C   0  0  0  0  0  0  0  0  0  0  0  0
    7.0547    0.1784    0.0000 C   0  0  0  0  0  0  0  0  0  0  0  0
    2.7029    0.9471    0.0000 C   0  0  0  0  0  0  0  0  0  0  0  0
    3.3424   -1.0209    0.0000 C   0  0  0  0  0  0  0  0  0  0  0  0
    6.7328   -0.8122    0.0000 C   0  0  0  0  0  0  0  0  0  0  0  0
    2.0000    0.1784    0.0000 C   0  0  0  0  0  0  0  0  0  0  0  0
    2.3219   -0.8122    0.0000 C   0  0  0  0  0  0  0  0  0  0  0  0
    8.7040   -0.3504    0.0000 C   0  0  0  0  0  0  0  0  0  0  0  0
   10.3534   -0.8793    0.0000 C   0  0  0  0  0  0  0  0  0  0  0  0
    9.9867    0.8135    0.0000 C   0  0  0  0  0  0  0  0  0  0  0  0
   10.9641    1.0252    0.0000 C   0  0  0  0  0  0  0  0  0  0  0  0
   11.3307   -0.6676    0.0000 C   0  0  0  0  0  0  0  0  0  0  0  0
    4.9422    1.7634    0.0000 H   0  0  0  0  0  0  0  0  0  0  0  0
    4.1125    1.7634    0.0000 H   0  0  0  0  0  0  0  0  0  0  0  0
    6.5365    1.5390    0.0000 H   0  0  0  0  0  0  0  0  0  0  0  0
    5.5139   -1.6083    0.0000 H   0  0  0  0  0  0  0  0  0  0  0  0
    2.5182    1.5390    0.0000 H   0  0  0  0  0  0  0  0  0  0  0  0
    3.5408   -1.6083    0.0000 H   0  0  0  0  0  0  0  0  0  0  0  0
    7.1459   -1.2746    0.0000 H   0  0  0  0  0  0  0  0  0  0  0  0
    8.2214    0.9805    0.0000 H   0  0  0  0  0  0  0  0  0  0  0  0
    1.3940    0.3097    0.0000 H   0  0  0  0  0  0  0  0  0  0  0  0
    1.9088   -1.2746    0.0000 H   0  0  0  0  0  0  0  0  0  0  0  0
    9.8289   -1.2099    0.0000 H   0  0  0  0  0  0  0  0  0  0  0  0
   10.5878   -1.4533    0.0000 H   0  0  0  0  0  0  0  0  0  0  0  0
    9.9627    1.4330    0.0000 H   0  0  0  0  0  0  0  0  0  0  0  0
    9.3724    0.8974    0.0000 H   0  0  0  0  0  0  0  0  0  0  0  0
   11.0953    0.4192    0.0000 H   0  0  0  0  0  0  0  0  0  0  0  0
   11.4620   -1.2736    0.0000 H   0  0  0  0  0  0  0  0  0  0  0  0
   11.9367   -0.5364    0.0000 H   0  0  0  0  0  0  0  0  0  0  0  0
   11.1995   -0.0617    0.0000 H   0  0  0  0  0  0  0  0  0  0  0  0
   11.5700    1.1564    0.0000 H   0  0  0  0  0  0  0  0  0  0  0  0
   10.8328    1.6311    0.0000 H   0  0  0  0  0  0  0  0  0  0  0  0
  1 17  2  0  0  0  0
  2 11  1  0  0  0  0
  2 17  1  0  0  0  0
  2 29  1  0  0  0  0
  3 17  1  0  0  0  0
  3 18  1  0  0  0  0
  3 19  1  0  0  0  0
  4  5  1  0  0  0  0
  4  6  2  0  0  0  0
  4  9  1  0  0  0  0
  5  7  1  0  0  0  0
  5 22  1  0  0  0  0
  5 23  1  0  0  0  0
  6  8  1  0  0  0  0
  6 10  1  0  0  0  0
  7  8  1  0  0  0  0
  7 12  2  0  0  0  0
  8 13  2  0  0  0  0
  9 11  2  0  0  0  0
  9 24  1  0  0  0  0
 10 14  2  0  0  0  0
 10 25  1  0  0  0  0
 11 14  1  0  0  0  0
 12 15  1  0  0  0  0
 12 26  1  0  0  0  0
 13 16  1  0  0  0  0
 13 27  1  0  0  0  0
 14 28  1  0  0  0  0
 15 16  2  0  0  0  0
 15 30  1  0  0  0  0
 16 31  1  0  0  0  0
 18 21  1  0  0  0  0
 18 32  1  0  0  0  0
 18 33  1  0  0  0  0
 19 20  1  0  0  0  0
 19 34  1  0  0  0  0
 19 35  1  0  0  0  0
 20 36  1  0  0  0  0
 20 40  1  0  0  0  0
 20 41  1  0  0  0  0
 21 37  1  0  0  0  0
 21 38  1  0  0  0  0
 21 39  1  0  0  0  0
M  END
> <PUBCHEM_COMPOUND_CID>
60274797

> <PUBCHEM_COMPOUND_CANONICALIZED>
1

> <PUBCHEM_CACTVS_COMPLEXITY>
366

> <PUBCHEM_CACTVS_HBOND_ACCEPTOR>
1

> <PUBCHEM_CACTVS_HBOND_DONOR>
1

> <PUBCHEM_CACTVS_ROTATABLE_BOND>
3

> <PUBCHEM_CACTVS_SUBSKEYS>
AAADceB7IAAAAAAAAAAAAAAAAAAAAYAAAAAwYAAAAAAAAGABQAAAHgAQAAAADAjBGAQzwIPAAACIAiRCUACCAAAhAgAIiAAIZIiIICLAkZGEIAholgLIyCcQgMAOiAAAQAAQAAAQAACAACAAAQAACAAAAA==

> <PUBCHEM_IUPAC_OPENEYE_NAME>
1,1-diethyl-3-(9H-fluoren-2-yl)urea

> <PUBCHEM_IUPAC_CAS_NAME>
1,1-diethyl-3-(9H-fluoren-2-yl)urea

> <PUBCHEM_IUPAC_NAME>
1,1-diethyl-3-(9H-fluoren-2-yl)urea

> <PUBCHEM_IUPAC_SYSTEMATIC_NAME>
1,1-diethyl-3-(9H-fluoren-2-yl)urea

> <PUBCHEM_IUPAC_TRADITIONAL_NAME>
1,1-diethyl-3-(9H-fluoren-2-yl)urea

> <PUBCHEM_IUPAC_INCHI>
InChI=1S/C18H20N2O/c1-3-20(4-2)18(21)19-15-9-10-17-14(12-15)11-13-7-5-6-8-16(13)17/h5-10,12H,3-4,11H2,1-2H3,(H,19,21)

> <PUBCHEM_IUPAC_INCHIKEY>
KRPFVMAGOKGPOE-UHFFFAOYSA-N

> <PUBCHEM_XLOGP3>
4.4

> <PUBCHEM_EXACT_MASS>
280.157563

> <PUBCHEM_MOLECULAR_FORMULA>
C18H20N2O

> <PUBCHEM_MOLECULAR_WEIGHT>
280.3642

> <PUBCHEM_OPENEYE_CAN_SMILES>
CCN(CC)C(=O)NC1=CC2=C(C=C1)C3=CC=CC=C3C2

> <PUBCHEM_OPENEYE_ISO_SMILES>
CCN(CC)C(=O)NC1=CC2=C(C=C1)C3=CC=CC=C3C2

> <PUBCHEM_CACTVS_TPSA>
32.3

> <PUBCHEM_MONOISOTOPIC_WEIGHT>
280.157563

> <PUBCHEM_TOTAL_CHARGE>
0

> <PUBCHEM_HEAVY_ATOM_COUNT>
21

> <PUBCHEM_ATOM_DEF_STEREO_COUNT>
0

> <PUBCHEM_ATOM_UDEF_STEREO_COUNT>
0

> <PUBCHEM_BOND_DEF_STEREO_COUNT>
0

> <PUBCHEM_BOND_UDEF_STEREO_COUNT>
0

> <PUBCHEM_ISOTOPIC_ATOM_COUNT>
0

> <PUBCHEM_COMPONENT_COUNT>
1

> <PUBCHEM_CACTVS_TAUTO_COUNT>
2

> <PUBCHEM_COORDINATE_TYPE>
1
5
255

> <PUBCHEM_BONDANNOTATIONS>
10  14  8
11  14  8
12  15  8
13  16  8
15  16  8
4  6  8
4  9  8
6  10  8
7  12  8
7  8  8
8  13  8
9  11  8

$$$$
