8985827
  -OEChem-11301217062D

 37 38  0     1  0  0  0  0  0999 V2000
    4.2690   -0.6900    0.0000 S   0  0  0  0  0  0  0  0  0  0  0  0
    8.5991    1.8100    0.0000 F   0  0  0  0  0  0  0  0  0  0  0  0
    8.2331    3.1760    0.0000 F   0  0  0  0  0  0  0  0  0  0  0  0
    7.2331    1.4440    0.0000 F   0  0  0  0  0  0  0  0  0  0  0  0
    4.2690    1.3100    0.0000 O   0  0  0  0  0  0  0  0  0  0  0  0
    6.0010    1.3100    0.0000 N   0  0  0  0  0  0  0  0  0  0  0  0
    3.4030   -2.1900    0.0000 N   0  0  0  0  0  0  0  0  0  0  0  0
    5.1350   -2.1900    0.0000 N   0  0  0  0  0  0  0  0  0  0  0  0
    4.2690   -3.6900    0.0000 N   0  0  0  0  0  0  0  0  0  0  0  0
    2.5369   -3.6900    0.0000 N   0  0  0  0  0  0  0  0  0  0  0  0
    6.0010   -3.6900    0.0000 N   0  0  0  0  0  0  0  0  0  0  0  0
    5.1350   -0.1900    0.0000 C   0  0  2  0  0  0  0  0  0  0  0  0
    6.0010    2.3100    0.0000 C   0  0  0  0  0  0  0  0  0  0  0  0
    6.8671    2.8100    0.0000 C   0  0  0  0  0  0  0  0  0  0  0  0
    5.1350    0.8100    0.0000 C   0  0  0  0  0  0  0  0  0  0  0  0
    6.0010   -0.6900    0.0000 C   0  0  0  0  0  0  0  0  0  0  0  0
    5.1350    2.8100    0.0000 C   0  0  0  0  0  0  0  0  0  0  0  0
    6.8671    3.8100    0.0000 C   0  0  0  0  0  0  0  0  0  0  0  0
    7.7331    2.3100    0.0000 C   0  0  0  0  0  0  0  0  0  0  0  0
    5.1350    3.8100    0.0000 C   0  0  0  0  0  0  0  0  0  0  0  0
    6.0010    4.3100    0.0000 C   0  0  0  0  0  0  0  0  0  0  0  0
    4.2690   -1.6900    0.0000 C   0  0  0  0  0  0  0  0  0  0  0  0
    3.4030   -3.1900    0.0000 C   0  0  0  0  0  0  0  0  0  0  0  0
    5.1350   -3.1900    0.0000 C   0  0  0  0  0  0  0  0  0  0  0  0
    5.1350   -0.8100    0.0000 H   0  0  0  0  0  0  0  0  0  0  0  0
    6.5380    1.0000    0.0000 H   0  0  0  0  0  0  0  0  0  0  0  0
    5.6910   -1.2269    0.0000 H   0  0  0  0  0  0  0  0  0  0  0  0
    6.5380   -1.0000    0.0000 H   0  0  0  0  0  0  0  0  0  0  0  0
    6.3110   -0.1531    0.0000 H   0  0  0  0  0  0  0  0  0  0  0  0
    4.5981    2.5000    0.0000 H   0  0  0  0  0  0  0  0  0  0  0  0
    7.4040    4.1200    0.0000 H   0  0  0  0  0  0  0  0  0  0  0  0
    4.5981    4.1200    0.0000 H   0  0  0  0  0  0  0  0  0  0  0  0
    6.0010    4.9300    0.0000 H   0  0  0  0  0  0  0  0  0  0  0  0
    2.5369   -4.3100    0.0000 H   0  0  0  0  0  0  0  0  0  0  0  0
    2.0000   -3.3800    0.0000 H   0  0  0  0  0  0  0  0  0  0  0  0
    6.5380   -3.3800    0.0000 H   0  0  0  0  0  0  0  0  0  0  0  0
    6.0010   -4.3100    0.0000 H   0  0  0  0  0  0  0  0  0  0  0  0
  1 12  1  0  0  0  0
  1 22  1  0  0  0  0
  2 19  1  0  0  0  0
  3 19  1  0  0  0  0
  4 19  1  0  0  0  0
  5 15  2  0  0  0  0
  6 13  1  0  0  0  0
  6 15  1  0  0  0  0
  6 26  1  0  0  0  0
  7 22  2  0  0  0  0
  7 23  1  0  0  0  0
  8 22  1  0  0  0  0
  8 24  2  0  0  0  0
  9 23  2  0  0  0  0
  9 24  1  0  0  0  0
 10 23  1  0  0  0  0
 10 34  1  0  0  0  0
 10 35  1  0  0  0  0
 11 24  1  0  0  0  0
 11 36  1  0  0  0  0
 11 37  1  0  0  0  0
 12 15  1  0  0  0  0
 12 16  1  6  0  0  0
 12 25  1  0  0  0  0
 13 14  1  0  0  0  0
 13 17  2  0  0  0  0
 14 18  2  0  0  0  0
 14 19  1  0  0  0  0
 16 27  1  0  0  0  0
 16 28  1  0  0  0  0
 16 29  1  0  0  0  0
 17 20  1  0  0  0  0
 17 30  1  0  0  0  0
 18 21  1  0  0  0  0
 18 31  1  0  0  0  0
 20 21  2  0  0  0  0
 20 32  1  0  0  0  0
 21 33  1  0  0  0  0
M  END
> <PUBCHEM_COMPOUND_CID>
8985827

> <PUBCHEM_COMPOUND_CANONICALIZED>
1

> <PUBCHEM_CACTVS_COMPLEXITY>
430

> <PUBCHEM_CACTVS_HBOND_ACCEPTOR>
10

> <PUBCHEM_CACTVS_HBOND_DONOR>
3

> <PUBCHEM_CACTVS_ROTATABLE_BOND>
4

> <PUBCHEM_CACTVS_SUBSKEYS>
AAADccBzoYBAAAAAAAAAAAAAAAAAAAAAAAA8QAAAAAAAAAABwAAAHwQQAAAADAiF2BCz0IbIEAioAiVSdACCUAlhApAJiAEAZIiIKCLAkZGEIAholADIyAcQgAAOAAAAAAACAAAAAAAAAAQAAAAAAAAAAA==

> <PUBCHEM_IUPAC_OPENEYE_NAME>
(2S)-2-[(4,6-diamino-1,3,5-triazin-2-yl)sulfanyl]-N-[2-(trifluoromethyl)phenyl]propanamide

> <PUBCHEM_IUPAC_CAS_NAME>
(2S)-2-[(4,6-diamino-1,3,5-triazin-2-yl)thio]-N-[2-(trifluoromethyl)phenyl]propanamide

> <PUBCHEM_IUPAC_NAME>
(2S)-2-[(4,6-diamino-1,3,5-triazin-2-yl)sulfanyl]-N-[2-(trifluoromethyl)phenyl]propanamide

> <PUBCHEM_IUPAC_SYSTEMATIC_NAME>
(2S)-2-[[4,6-bis(azanyl)-1,3,5-triazin-2-yl]sulfanyl]-N-[2-(trifluoromethyl)phenyl]propanamide

> <PUBCHEM_IUPAC_TRADITIONAL_NAME>
(2S)-2-[(4,6-diamino-s-triazin-2-yl)thio]-N-[2-(trifluoromethyl)phenyl]propionamide

> <PUBCHEM_IUPAC_INCHI>
InChI=1S/C13H13F3N6OS/c1-6(24-12-21-10(17)20-11(18)22-12)9(23)19-8-5-3-2-4-7(8)13(14,15)16/h2-6H,1H3,(H,19,23)(H4,17,18,20,21,22)/t6-/m0/s1

> <PUBCHEM_IUPAC_INCHIKEY>
NYMVZHDJAAEZNO-LURJTMIESA-N

> <PUBCHEM_XLOGP3>
1.4

> <PUBCHEM_EXACT_MASS>
358.082365

> <PUBCHEM_MOLECULAR_FORMULA>
C13H13F3N6OS

> <PUBCHEM_MOLECULAR_WEIGHT>
358.34213

> <PUBCHEM_OPENEYE_CAN_SMILES>
CC(C(=O)NC1=CC=CC=C1C(F)(F)F)SC2=NC(=NC(=N2)N)N

> <PUBCHEM_OPENEYE_ISO_SMILES>
C[C@@H](C(=O)NC1=CC=CC=C1C(F)(F)F)SC2=NC(=NC(=N2)N)N

> <PUBCHEM_CACTVS_TPSA>
145

> <PUBCHEM_MONOISOTOPIC_WEIGHT>
358.082365

> <PUBCHEM_TOTAL_CHARGE>
0

> <PUBCHEM_HEAVY_ATOM_COUNT>
24

> <PUBCHEM_ATOM_DEF_STEREO_COUNT>
1

> <PUBCHEM_ATOM_UDEF_STEREO_COUNT>
0

> <PUBCHEM_BOND_DEF_STEREO_COUNT>
0

> <PUBCHEM_BOND_UDEF_STEREO_COUNT>
0

> <PUBCHEM_ISOTOPIC_ATOM_COUNT>
0

> <PUBCHEM_COMPONENT_COUNT>
1

> <PUBCHEM_CACTVS_TAUTO_COUNT>
15

> <PUBCHEM_COORDINATE_TYPE>
1
5
255

> <PUBCHEM_BONDANNOTATIONS>
12  16  6
13  14  8
13  17  8
14  18  8
17  20  8
18  21  8
20  21  8
7  22  8
7  23  8
8  22  8
8  24  8
9  23  8
9  24  8

$$$$
8985829
  -OEChem-11301217062D

 37 38  0     1  0  0  0  0  0999 V2000
    4.2690   -0.6900    0.0000 S   0  0  0  0  0  0  0  0  0  0  0  0
    8.5991    1.8100    0.0000 F   0  0  0  0  0  0  0  0  0  0  0  0
    8.2331    3.1760    0.0000 F   0  0  0  0  0  0  0  0  0  0  0  0
    7.2331    1.4440    0.0000 F   0  0  0  0  0  0  0  0  0  0  0  0
    4.2690    1.3100    0.0000 O   0  0  0  0  0  0  0  0  0  0  0  0
    6.0010    1.3100    0.0000 N   0  0  0  0  0  0  0  0  0  0  0  0
    3.4030   -2.1900    0.0000 N   0  0  0  0  0  0  0  0  0  0  0  0
    5.1350   -2.1900    0.0000 N   0  0  0  0  0  0  0  0  0  0  0  0
    4.2690   -3.6900    0.0000 N   0  0  0  0  0  0  0  0  0  0  0  0
    2.5369   -3.6900    0.0000 N   0  0  0  0  0  0  0  0  0  0  0  0
    6.0010   -3.6900    0.0000 N   0  0  0  0  0  0  0  0  0  0  0  0
    5.1350   -0.1900    0.0000 C   0  0  1  0  0  0  0  0  0  0  0  0
    6.0010    2.3100    0.0000 C   0  0  0  0  0  0  0  0  0  0  0  0
    6.8671    2.8100    0.0000 C   0  0  0  0  0  0  0  0  0  0  0  0
    5.1350    0.8100    0.0000 C   0  0  0  0  0  0  0  0  0  0  0  0
    6.0010   -0.6900    0.0000 C   0  0  0  0  0  0  0  0  0  0  0  0
    5.1350    2.8100    0.0000 C   0  0  0  0  0  0  0  0  0  0  0  0
    6.8671    3.8100    0.0000 C   0  0  0  0  0  0  0  0  0  0  0  0
    7.7331    2.3100    0.0000 C   0  0  0  0  0  0  0  0  0  0  0  0
    5.1350    3.8100    0.0000 C   0  0  0  0  0  0  0  0  0  0  0  0
    6.0010    4.3100    0.0000 C   0  0  0  0  0  0  0  0  0  0  0  0
    4.2690   -1.6900    0.0000 C   0  0  0  0  0  0  0  0  0  0  0  0
    3.4030   -3.1900    0.0000 C   0  0  0  0  0  0  0  0  0  0  0  0
    5.1350   -3.1900    0.0000 C   0  0  0  0  0  0  0  0  0  0  0  0
    5.1350   -0.8100    0.0000 H   0  0  0  0  0  0  0  0  0  0  0  0
    6.5380    1.0000    0.0000 H   0  0  0  0  0  0  0  0  0  0  0  0
    5.6910   -1.2269    0.0000 H   0  0  0  0  0  0  0  0  0  0  0  0
    6.5380   -1.0000    0.0000 H   0  0  0  0  0  0  0  0  0  0  0  0
    6.3110   -0.1531    0.0000 H   0  0  0  0  0  0  0  0  0  0  0  0
    4.5981    2.5000    0.0000 H   0  0  0  0  0  0  0  0  0  0  0  0
    7.4040    4.1200    0.0000 H   0  0  0  0  0  0  0  0  0  0  0  0
    4.5981    4.1200    0.0000 H   0  0  0  0  0  0  0  0  0  0  0  0
    6.0010    4.9300    0.0000 H   0  0  0  0  0  0  0  0  0  0  0  0
    2.5369   -4.3100    0.0000 H   0  0  0  0  0  0  0  0  0  0  0  0
    2.0000   -3.3800    0.0000 H   0  0  0  0  0  0  0  0  0  0  0  0
    6.5380   -3.3800    0.0000 H   0  0  0  0  0  0  0  0  0  0  0  0
    6.0010   -4.3100    0.0000 H   0  0  0  0  0  0  0  0  0  0  0  0
  1 12  1  0  0  0  0
  1 22  1  0  0  0  0
  2 19  1  0  0  0  0
  3 19  1  0  0  0  0
  4 19  1  0  0  0  0
  5 15  2  0  0  0  0
  6 13  1  0  0  0  0
  6 15  1  0  0  0  0
  6 26  1  0  0  0  0
  7 22  2  0  0  0  0
  7 23  1  0  0  0  0
  8 22  1  0  0  0  0
  8 24  2  0  0  0  0
  9 23  2  0  0  0  0
  9 24  1  0  0  0  0
 10 23  1  0  0  0  0
 10 34  1  0  0  0  0
 10 35  1  0  0  0  0
 11 24  1  0  0  0  0
 11 36  1  0  0  0  0
 11 37  1  0  0  0  0
 12 15  1  0  0  0  0
 12 16  1  1  0  0  0
 12 25  1  0  0  0  0
 13 14  1  0  0  0  0
 13 17  2  0  0  0  0
 14 18  2  0  0  0  0
 14 19  1  0  0  0  0
 16 27  1  0  0  0  0
 16 28  1  0  0  0  0
 16 29  1  0  0  0  0
 17 20  1  0  0  0  0
 17 30  1  0  0  0  0
 18 21  1  0  0  0  0
 18 31  1  0  0  0  0
 20 21  2  0  0  0  0
 20 32  1  0  0  0  0
 21 33  1  0  0  0  0
M  END
> <PUBCHEM_COMPOUND_CID>
8985829

> <PUBCHEM_COMPOUND_CANONICALIZED>
1

> <PUBCHEM_CACTVS_COMPLEXITY>
430

> <PUBCHEM_CACTVS_HBOND_ACCEPTOR>
10

> <PUBCHEM_CACTVS_HBOND_DONOR>
3

> <PUBCHEM_CACTVS_ROTATABLE_BOND>
4

> <PUBCHEM_CACTVS_SUBSKEYS>
AAADccBzoYBAAAAAAAAAAAAAAAAAAAAAAAA8QAAAAAAAAAABwAAAHwQQAAAADAiF2BCz0IbIEAioAiVSdACCUAlhApAJiAEAZIiIKCLAkZGEIAholADIyAcQgAAOAAAAAAACAAAAAAAAAAQAAAAAAAAAAA==

> <PUBCHEM_IUPAC_OPENEYE_NAME>
(2R)-2-[(4,6-diamino-1,3,5-triazin-2-yl)sulfanyl]-N-[2-(trifluoromethyl)phenyl]propanamide

> <PUBCHEM_IUPAC_CAS_NAME>
(2R)-2-[(4,6-diamino-1,3,5-triazin-2-yl)thio]-N-[2-(trifluoromethyl)phenyl]propanamide

> <PUBCHEM_IUPAC_NAME>
(2R)-2-[(4,6-diamino-1,3,5-triazin-2-yl)sulfanyl]-N-[2-(trifluoromethyl)phenyl]propanamide

> <PUBCHEM_IUPAC_SYSTEMATIC_NAME>
(2R)-2-[[4,6-bis(azanyl)-1,3,5-triazin-2-yl]sulfanyl]-N-[2-(trifluoromethyl)phenyl]propanamide

> <PUBCHEM_IUPAC_TRADITIONAL_NAME>
(2R)-2-[(4,6-diamino-s-triazin-2-yl)thio]-N-[2-(trifluoromethyl)phenyl]propionamide

> <PUBCHEM_IUPAC_INCHI>
InChI=1S/C13H13F3N6OS/c1-6(24-12-21-10(17)20-11(18)22-12)9(23)19-8-5-3-2-4-7(8)13(14,15)16/h2-6H,1H3,(H,19,23)(H4,17,18,20,21,22)/t6-/m1/s1

> <PUBCHEM_IUPAC_INCHIKEY>
NYMVZHDJAAEZNO-ZCFIWIBFSA-N

> <PUBCHEM_XLOGP3>
1.4

> <PUBCHEM_EXACT_MASS>
358.082365

> <PUBCHEM_MOLECULAR_FORMULA>
C13H13F3N6OS

> <PUBCHEM_MOLECULAR_WEIGHT>
358.34213

> <PUBCHEM_OPENEYE_CAN_SMILES>
CC(C(=O)NC1=CC=CC=C1C(F)(F)F)SC2=NC(=NC(=N2)N)N

> <PUBCHEM_OPENEYE_ISO_SMILES>
C[C@H](C(=O)NC1=CC=CC=C1C(F)(F)F)SC2=NC(=NC(=N2)N)N

> <PUBCHEM_CACTVS_TPSA>
145

> <PUBCHEM_MONOISOTOPIC_WEIGHT>
358.082365

> <PUBCHEM_TOTAL_CHARGE>
0

> <PUBCHEM_HEAVY_ATOM_COUNT>
24

> <PUBCHEM_ATOM_DEF_STEREO_COUNT>
1

> <PUBCHEM_ATOM_UDEF_STEREO_COUNT>
0

> <PUBCHEM_BOND_DEF_STEREO_COUNT>
0

> <PUBCHEM_BOND_UDEF_STEREO_COUNT>
0

> <PUBCHEM_ISOTOPIC_ATOM_COUNT>
0

> <PUBCHEM_COMPONENT_COUNT>
1

> <PUBCHEM_CACTVS_TAUTO_COUNT>
15

> <PUBCHEM_COORDINATE_TYPE>
1
5
255

> <PUBCHEM_BONDANNOTATIONS>
12  16  5
13  14  8
13  17  8
14  18  8
17  20  8
18  21  8
20  21  8
7  22  8
7  23  8
8  22  8
8  24  8
9  23  8
9  24  8

$$$$
