44725434
  -OEChem-06011308392D

 24 25  0     0  0  0  0  0  0999 V2000
    2.0000    0.8030    0.0000 Br  0  0  0  0  0  0  0  0  0  0  0  0
    2.0000   -1.1970    0.0000 Br  0  0  0  0  0  0  0  0  0  0  0  0
    5.5443    0.6077    0.0000 N   0  0  0  0  0  0  0  0  0  0  0  0
    5.5443   -1.0018    0.0000 N   0  0  0  0  0  0  0  0  0  0  0  0
    7.1279   -0.1970    0.0000 C   0  0  0  0  0  0  0  0  0  0  0  0
    6.1279   -0.1970    0.0000 C   0  0  0  0  0  0  0  0  0  0  0  0
    4.5981    0.3030    0.0000 C   0  0  0  0  0  0  0  0  0  0  0  0
    7.6279   -1.0630    0.0000 C   0  0  0  0  0  0  0  0  0  0  0  0
    4.5981   -0.6970    0.0000 C   0  0  0  0  0  0  0  0  0  0  0  0
    3.7320    0.8030    0.0000 C   0  0  0  0  0  0  0  0  0  0  0  0
    3.7320   -1.1970    0.0000 C   0  0  0  0  0  0  0  0  0  0  0  0
    8.6279   -1.0630    0.0000 C   0  0  0  0  0  0  0  0  0  0  0  0
    2.8660    0.3030    0.0000 C   0  0  0  0  0  0  0  0  0  0  0  0
    2.8660   -0.6970    0.0000 C   0  0  0  0  0  0  0  0  0  0  0  0
    7.7105    0.0150    0.0000 H   0  0  0  0  0  0  0  0  0  0  0  0
    7.0202    0.4136    0.0000 H   0  0  0  0  0  0  0  0  0  0  0  0
    7.0453   -1.2751    0.0000 H   0  0  0  0  0  0  0  0  0  0  0  0
    7.7356   -1.6736    0.0000 H   0  0  0  0  0  0  0  0  0  0  0  0
    5.7369    1.1970    0.0000 H   0  0  0  0  0  0  0  0  0  0  0  0
    3.7320    1.4230    0.0000 H   0  0  0  0  0  0  0  0  0  0  0  0
    3.7320   -1.8170    0.0000 H   0  0  0  0  0  0  0  0  0  0  0  0
    8.6279   -1.6830    0.0000 H   0  0  0  0  0  0  0  0  0  0  0  0
    9.2479   -1.0630    0.0000 H   0  0  0  0  0  0  0  0  0  0  0  0
    8.6279   -0.4431    0.0000 H   0  0  0  0  0  0  0  0  0  0  0  0
  1 13  1  0  0  0  0
  2 14  1  0  0  0  0
  3  6  1  0  0  0  0
  3  7  1  0  0  0  0
  3 19  1  0  0  0  0
  4  6  2  0  0  0  0
  4  9  1  0  0  0  0
  5  6  1  0  0  0  0
  5  8  1  0  0  0  0
  5 15  1  0  0  0  0
  5 16  1  0  0  0  0
  7  9  1  0  0  0  0
  7 10  2  0  0  0  0
  8 12  1  0  0  0  0
  8 17  1  0  0  0  0
  8 18  1  0  0  0  0
  9 11  2  0  0  0  0
 10 13  1  0  0  0  0
 10 20  1  0  0  0  0
 11 14  1  0  0  0  0
 11 21  1  0  0  0  0
 12 22  1  0  0  0  0
 12 23  1  0  0  0  0
 12 24  1  0  0  0  0
 13 14  2  0  0  0  0
M  END
> <PUBCHEM_COMPOUND_CID>
44725434

> <PUBCHEM_COMPOUND_CANONICALIZED>
1

> <PUBCHEM_CACTVS_COMPLEXITY>
201

> <PUBCHEM_CACTVS_HBOND_ACCEPTOR>
1

> <PUBCHEM_CACTVS_HBOND_DONOR>
1

> <PUBCHEM_CACTVS_ROTATABLE_BOND>
2

> <PUBCHEM_CACTVS_SUBSKEYS>
AAADccBzAAAAGAAAAAAAAAAAAAAAAWAAAAAwAAAAAAAAAFgB8AAAHABQAAABqAiBFwAz0LbJkACgASZiZACCgC2hEqQBmSAwdLiIaKLAmJGUIAhokALIyjcQAAAAAAAgAAEAACEAAEAAAgAAQgAAAAAAAA==

> <PUBCHEM_IUPAC_OPENEYE_NAME>
5,6-dibromo-2-propyl-1H-benzimidazole

> <PUBCHEM_IUPAC_CAS_NAME>
5,6-dibromo-2-propyl-1H-benzimidazole

> <PUBCHEM_IUPAC_NAME>
5,6-dibromo-2-propyl-1H-benzimidazole

> <PUBCHEM_IUPAC_SYSTEMATIC_NAME>
5,6-bis(bromanyl)-2-propyl-1H-benzimidazole

> <PUBCHEM_IUPAC_TRADITIONAL_NAME>
5,6-dibromo-2-propyl-1H-benzimidazole

> <PUBCHEM_IUPAC_INCHI>
InChI=1S/C10H10Br2N2/c1-2-3-10-13-8-4-6(11)7(12)5-9(8)14-10/h4-5H,2-3H2,1H3,(H,13,14)

> <PUBCHEM_IUPAC_INCHIKEY>
DOUUGDYRPPPVIV-UHFFFAOYSA-N

> <PUBCHEM_XLOGP3>
4.4

> <PUBCHEM_EXACT_MASS>
317.919026

> <PUBCHEM_MOLECULAR_FORMULA>
C10H10Br2N2

> <PUBCHEM_MOLECULAR_WEIGHT>
318.0078

> <PUBCHEM_OPENEYE_CAN_SMILES>
CCCC1=NC2=CC(=C(C=C2N1)Br)Br

> <PUBCHEM_OPENEYE_ISO_SMILES>
CCCC1=NC2=CC(=C(C=C2N1)Br)Br

> <PUBCHEM_CACTVS_TPSA>
28.7

> <PUBCHEM_MONOISOTOPIC_WEIGHT>
315.921073

> <PUBCHEM_TOTAL_CHARGE>
0

> <PUBCHEM_HEAVY_ATOM_COUNT>
14

> <PUBCHEM_ATOM_DEF_STEREO_COUNT>
0

> <PUBCHEM_ATOM_UDEF_STEREO_COUNT>
0

> <PUBCHEM_BOND_DEF_STEREO_COUNT>
0

> <PUBCHEM_BOND_UDEF_STEREO_COUNT>
0

> <PUBCHEM_ISOTOPIC_ATOM_COUNT>
0

> <PUBCHEM_COMPONENT_COUNT>
1

> <PUBCHEM_CACTVS_TAUTO_COUNT>
2

> <PUBCHEM_COORDINATE_TYPE>
1
5
255

> <PUBCHEM_BONDANNOTATIONS>
10  13  8
11  14  8
13  14  8
3  6  8
3  7  8
4  6  8
4  9  8
7  10  8
7  9  8
9  11  8

$$$$
44725473
  -OEChem-06011308392D

 31 33  0     0  0  0  0  0  0999 V2000
    7.0547   -0.2724    0.0000 N   0  3  0  0  0  0  0  0  0  0  0  0
    4.5274    0.8518    0.0000 N   0  0  0  0  0  0  0  0  0  0  0  0
    5.0274   -0.6871    0.0000 C   0  0  0  0  0  0  0  0  0  0  0  0
    5.3364    0.2640    0.0000 C   0  0  0  0  0  0  0  0  0  0  0  0
    4.0274   -0.6871    0.0000 C   0  0  0  0  0  0  0  0  0  0  0  0
    3.7183    0.2640    0.0000 C   0  0  0  0  0  0  0  0  0  0  0  0
    8.0321   -0.0608    0.0000 C   0  0  0  0  0  0  0  0  0  0  0  0
    6.3518    0.4963    0.0000 C   0  0  0  0  0  0  0  0  0  0  0  0
    5.7123   -1.4718    0.0000 C   0  0  0  0  0  0  0  0  0  0  0  0
    6.7328   -1.2631    0.0000 C   0  0  0  0  0  0  0  0  0  0  0  0
    8.7040   -0.8013    0.0000 C   0  0  0  0  0  0  0  0  0  0  0  0
    3.3424   -1.4718    0.0000 C   0  0  0  0  0  0  0  0  0  0  0  0
    2.7029    0.4963    0.0000 C   0  0  0  0  0  0  0  0  0  0  0  0
    2.3219   -1.2631    0.0000 C   0  0  0  0  0  0  0  0  0  0  0  0
    9.6814   -0.5896    0.0000 C   0  0  0  0  0  0  0  0  0  0  0  0
    2.0000   -0.2724    0.0000 C   0  0  0  0  0  0  0  0  0  0  0  0
    8.5566    0.2698    0.0000 H   0  0  0  0  0  0  0  0  0  0  0  0
    7.7976    0.5132    0.0000 H   0  0  0  0  0  0  0  0  0  0  0  0
    6.5365    1.0881    0.0000 H   0  0  0  0  0  0  0  0  0  0  0  0
    4.5274    1.4718    0.0000 H   0  0  0  0  0  0  0  0  0  0  0  0
    5.5139   -2.0592    0.0000 H   0  0  0  0  0  0  0  0  0  0  0  0
    7.1459   -1.7254    0.0000 H   0  0  0  0  0  0  0  0  0  0  0  0
    8.1795   -1.1319    0.0000 H   0  0  0  0  0  0  0  0  0  0  0  0
    8.9385   -1.3753    0.0000 H   0  0  0  0  0  0  0  0  0  0  0  0
    3.5408   -2.0592    0.0000 H   0  0  0  0  0  0  0  0  0  0  0  0
    2.5182    1.0881    0.0000 H   0  0  0  0  0  0  0  0  0  0  0  0
    9.8126   -1.1956    0.0000 H   0  0  0  0  0  0  0  0  0  0  0  0
   10.2873   -0.4584    0.0000 H   0  0  0  0  0  0  0  0  0  0  0  0
    9.5502    0.0163    0.0000 H   0  0  0  0  0  0  0  0  0  0  0  0
    1.9088   -1.7254    0.0000 H   0  0  0  0  0  0  0  0  0  0  0  0
    1.3940   -0.1412    0.0000 H   0  0  0  0  0  0  0  0  0  0  0  0
  1  7  1  0  0  0  0
  1  8  2  0  0  0  0
  1 10  1  0  0  0  0
  2  4  1  0  0  0  0
  2  6  1  0  0  0  0
  2 20  1  0  0  0  0
  3  4  2  0  0  0  0
  3  5  1  0  0  0  0
  3  9  1  0  0  0  0
  4  8  1  0  0  0  0
  5  6  1  0  0  0  0
  5 12  2  0  0  0  0
  6 13  2  0  0  0  0
  7 11  1  0  0  0  0
  7 17  1  0  0  0  0
  7 18  1  0  0  0  0
  8 19  1  0  0  0  0
  9 10  2  0  0  0  0
  9 21  1  0  0  0  0
 10 22  1  0  0  0  0
 11 15  1  0  0  0  0
 11 23  1  0  0  0  0
 11 24  1  0  0  0  0
 12 14  1  0  0  0  0
 12 25  1  0  0  0  0
 13 16  1  0  0  0  0
 13 26  1  0  0  0  0
 14 16  2  0  0  0  0
 14 30  1  0  0  0  0
 15 27  1  0  0  0  0
 15 28  1  0  0  0  0
 15 29  1  0  0  0  0
 16 31  1  0  0  0  0
M  CHG  1   1   1
M  END
> <PUBCHEM_COMPOUND_CID>
44725473

> <PUBCHEM_COMPOUND_CANONICALIZED>
1

> <PUBCHEM_CACTVS_COMPLEXITY>
241

> <PUBCHEM_CACTVS_HBOND_ACCEPTOR>
0

> <PUBCHEM_CACTVS_HBOND_DONOR>
1

> <PUBCHEM_CACTVS_ROTATABLE_BOND>
2

> <PUBCHEM_CACTVS_SUBSKEYS>
AAADccBzAAAAAAAAAAAAAAAAAAAAAWAAAAA8QAAAAAAAAFgB/gAAHAAQAAAADAjBHgQ+wPPNkACgAzRnRACCgCQxEiAI2SA4dJgIYOLAkZGUIAhgkADIyAcQgMAOgAAAAAACAAAAAAAAAAQAAAAAAAAAAA==

> <PUBCHEM_IUPAC_OPENEYE_NAME>
2-propyl-9H-pyrido[3,4-b]indol-2-ium

> <PUBCHEM_IUPAC_CAS_NAME>
2-propyl-9H-pyrido[3,4-b]indol-2-ium

> <PUBCHEM_IUPAC_NAME>
2-propyl-9H-pyrido[3,4-b]indol-2-ium

> <PUBCHEM_IUPAC_SYSTEMATIC_NAME>
2-propyl-9H-pyrido[3,4-b]indol-2-ium

> <PUBCHEM_IUPAC_TRADITIONAL_NAME>
2-propyl-9H-$b-carbolin-2-ium

> <PUBCHEM_IUPAC_INCHI>
InChI=1S/C14H14N2/c1-2-8-16-9-7-12-11-5-3-4-6-13(11)15-14(12)10-16/h3-7,9-10H,2,8H2,1H3/p+1

> <PUBCHEM_IUPAC_INCHIKEY>
SFUAYJFEBSOZSQ-UHFFFAOYSA-O

> <PUBCHEM_XLOGP3>
4.1

> <PUBCHEM_EXACT_MASS>
211.123523

> <PUBCHEM_MOLECULAR_FORMULA>
C14H15N2+

> <PUBCHEM_MOLECULAR_WEIGHT>
211.2823

> <PUBCHEM_OPENEYE_CAN_SMILES>
CCC[N+]1=CC2=C(C=C1)C3=CC=CC=C3N2

> <PUBCHEM_OPENEYE_ISO_SMILES>
CCC[N+]1=CC2=C(C=C1)C3=CC=CC=C3N2

> <PUBCHEM_CACTVS_TPSA>
19.7

> <PUBCHEM_MONOISOTOPIC_WEIGHT>
211.123523

> <PUBCHEM_TOTAL_CHARGE>
1

> <PUBCHEM_HEAVY_ATOM_COUNT>
16

> <PUBCHEM_ATOM_DEF_STEREO_COUNT>
0

> <PUBCHEM_ATOM_UDEF_STEREO_COUNT>
0

> <PUBCHEM_BOND_DEF_STEREO_COUNT>
0

> <PUBCHEM_BOND_UDEF_STEREO_COUNT>
0

> <PUBCHEM_ISOTOPIC_ATOM_COUNT>
0

> <PUBCHEM_COMPONENT_COUNT>
1

> <PUBCHEM_CACTVS_TAUTO_COUNT>
1

> <PUBCHEM_COORDINATE_TYPE>
1
5
255

> <PUBCHEM_BONDANNOTATIONS>
1  10  8
1  8  8
12  14  8
13  16  8
14  16  8
2  4  8
2  6  8
3  4  8
3  5  8
3  9  8
4  8  8
5  12  8
5  6  8
6  13  8
9  10  8

$$$$
44725872
  -OEChem-06011308392D

 25 25  0     0  0  0  0  0  0999 V2000
    3.7320    2.3450    0.0000 O   0  0  0  0  0  0  0  0  0  0  0  0
    3.7320   -1.6550    0.0000 C   0  0  0  0  0  0  0  0  0  0  0  0
    4.5981   -1.1550    0.0000 C   0  0  0  0  0  0  0  0  0  0  0  0
    2.8660   -1.1550    0.0000 C   0  0  0  0  0  0  0  0  0  0  0  0
    3.7320    0.3450    0.0000 C   0  0  0  0  0  0  0  0  0  0  0  0
    4.5981   -0.1550    0.0000 C   0  0  0  0  0  0  0  0  0  0  0  0
    2.8660   -0.1550    0.0000 C   0  0  0  0  0  0  0  0  0  0  0  0
    3.7320   -2.6550    0.0000 C   0  0  0  0  0  0  0  0  0  0  0  0
    5.4641   -1.6550    0.0000 C   0  0  0  0  0  0  0  0  0  0  0  0
    2.0000   -1.6550    0.0000 C   0  0  0  0  0  0  0  0  0  0  0  0
    3.7320    1.3450    0.0000 C   0  0  0  0  0  0  0  0  0  0  0  0
    5.1350    0.1550    0.0000 H   0  0  0  0  0  0  0  0  0  0  0  0
    2.3291    0.1550    0.0000 H   0  0  0  0  0  0  0  0  0  0  0  0
    3.1120   -2.6550    0.0000 H   0  0  0  0  0  0  0  0  0  0  0  0
    3.7320   -3.2750    0.0000 H   0  0  0  0  0  0  0  0  0  0  0  0
    4.3520   -2.6550    0.0000 H   0  0  0  0  0  0  0  0  0  0  0  0
    5.1541   -2.1919    0.0000 H   0  0  0  0  0  0  0  0  0  0  0  0
    6.0010   -1.9650    0.0000 H   0  0  0  0  0  0  0  0  0  0  0  0
    5.7741   -1.1181    0.0000 H   0  0  0  0  0  0  0  0  0  0  0  0
    1.6900   -1.1181    0.0000 H   0  0  0  0  0  0  0  0  0  0  0  0
    1.4631   -1.9650    0.0000 H   0  0  0  0  0  0  0  0  0  0  0  0
    2.3100   -2.1919    0.0000 H   0  0  0  0  0  0  0  0  0  0  0  0
    4.3520    1.3450    0.0000 H   1  0  0  0  0  0  0  0  0  0  0  0
    3.1120    1.3450    0.0000 H   1  0  0  0  0  0  0  0  0  0  0  0
    4.2690    2.6550    0.0000 H   0  0  0  0  0  0  0  0  0  0  0  0
  1 11  1  0  0  0  0
  1 25  1  0  0  0  0
  2  3  2  0  0  0  0
  2  4  1  0  0  0  0
  2  8  1  0  0  0  0
  3  6  1  0  0  0  0
  3  9  1  0  0  0  0
  4  7  2  0  0  0  0
  4 10  1  0  0  0  0
  5  6  2  0  0  0  0
  5  7  1  0  0  0  0
  5 11  1  0  0  0  0
  6 12  1  0  0  0  0
  7 13  1  0  0  0  0
  8 14  1  0  0  0  0
  8 15  1  0  0  0  0
  8 16  1  0  0  0  0
  9 17  1  0  0  0  0
  9 18  1  0  0  0  0
  9 19  1  0  0  0  0
 10 20  1  0  0  0  0
 10 21  1  0  0  0  0
 10 22  1  0  0  0  0
 11 23  1  0  0  0  0
 11 24  1  0  0  0  0
M  ISO  2  23   2  24   2
M  END
> <PUBCHEM_COMPOUND_CID>
44725872

> <PUBCHEM_COMPOUND_CANONICALIZED>
1

> <PUBCHEM_CACTVS_COMPLEXITY>
110

> <PUBCHEM_CACTVS_HBOND_ACCEPTOR>
1

> <PUBCHEM_CACTVS_HBOND_DONOR>
1

> <PUBCHEM_CACTVS_ROTATABLE_BOND>
1

> <PUBCHEM_CACTVS_SUBSKEYS>
AAADccBwIAAAAAAAAAAAAAAAAAAAAAAAAAAwAAAAAAAAAAABAAAAGgAACAAADACgmAIyAIAAAgCAAiBCAAACAAAgAAAAiAAACIgINiKAERCAcAAkwAEImAeAwPAOwAACAAAQAACAAAQAACAAAAAAAAAAAA==

> <PUBCHEM_IUPAC_OPENEYE_NAME>
dideuterio-(3,4,5-trimethylphenyl)methanol

> <PUBCHEM_IUPAC_CAS_NAME>
dideuterio-(3,4,5-trimethylphenyl)methanol

> <PUBCHEM_IUPAC_NAME>
dideuterio-(3,4,5-trimethylphenyl)methanol

> <PUBCHEM_IUPAC_SYSTEMATIC_NAME>
dideuterio-(3,4,5-trimethylphenyl)methanol

> <PUBCHEM_IUPAC_TRADITIONAL_NAME>
dideuterio-(3,4,5-trimethylphenyl)methanol

> <PUBCHEM_IUPAC_INCHI>
InChI=1S/C10H14O/c1-7-4-10(6-11)5-8(2)9(7)3/h4-5,11H,6H2,1-3H3/i6D2

> <PUBCHEM_IUPAC_INCHIKEY>
RUPONURESHSCBM-NCYHJHSESA-N

> <PUBCHEM_XLOGP3>
2.8

> <PUBCHEM_EXACT_MASS>
152.117019

> <PUBCHEM_MOLECULAR_FORMULA>
C10H14O

> <PUBCHEM_MOLECULAR_WEIGHT>
152.229884

> <PUBCHEM_OPENEYE_CAN_SMILES>
CC1=CC(=CC(=C1C)C)CO

> <PUBCHEM_OPENEYE_ISO_SMILES>
[2H]C([2H])(C1=CC(=C(C(=C1)C)C)C)O

> <PUBCHEM_CACTVS_TPSA>
20.2

> <PUBCHEM_MONOISOTOPIC_WEIGHT>
152.117019

> <PUBCHEM_TOTAL_CHARGE>
0

> <PUBCHEM_HEAVY_ATOM_COUNT>
11

> <PUBCHEM_ATOM_DEF_STEREO_COUNT>
0

> <PUBCHEM_ATOM_UDEF_STEREO_COUNT>
0

> <PUBCHEM_BOND_DEF_STEREO_COUNT>
0

> <PUBCHEM_BOND_UDEF_STEREO_COUNT>
0

> <PUBCHEM_ISOTOPIC_ATOM_COUNT>
2

> <PUBCHEM_COMPONENT_COUNT>
1

> <PUBCHEM_CACTVS_TAUTO_COUNT>
1

> <PUBCHEM_COORDINATE_TYPE>
1
5
255

> <PUBCHEM_BONDANNOTATIONS>
2  3  8
2  4  8
3  6  8
4  7  8
5  6  8
5  7  8

$$$$
44725902
  -OEChem-06011308392D

 36 38  0     1  0  0  0  0  0999 V2000
    2.0000    2.5000    0.0000 O   0  0  0  0  0  0  0  0  0  0  0  0
    2.8660    2.0000    0.0000 C   0  0  3  0  0  0  0  0  0  0  0  0
    2.8660    1.0000    0.0000 C   0  0  0  0  0  0  0  0  0  0  0  0
    3.7320    2.5000    0.0000 C   0  0  0  0  0  0  0  0  0  0  0  0
    2.8660   -1.0000    0.0000 C   0  0  0  0  0  0  0  0  0  0  0  0
    2.0000    0.5000    0.0000 C   0  0  0  0  0  0  0  0  0  0  0  0
    3.7320    0.5000    0.0000 C   0  0  0  0  0  0  0  0  0  0  0  0
    2.0000   -0.5000    0.0000 C   0  0  0  0  0  0  0  0  0  0  0  0
    3.7320   -0.5000    0.0000 C   0  0  0  0  0  0  0  0  0  0  0  0
    2.8660   -2.0000    0.0000 C   0  0  0  0  0  0  0  0  0  0  0  0
    4.5981    2.0000    0.0000 C   0  0  0  0  0  0  0  0  0  0  0  0
    3.7320    3.5000    0.0000 C   0  0  0  0  0  0  0  0  0  0  0  0
    2.0000   -2.5000    0.0000 C   0  0  0  0  0  0  0  0  0  0  0  0
    3.7320   -2.5000    0.0000 C   0  0  0  0  0  0  0  0  0  0  0  0
    5.4641    2.5000    0.0000 C   0  0  0  0  0  0  0  0  0  0  0  0
    4.5981    4.0000    0.0000 C   0  0  0  0  0  0  0  0  0  0  0  0
    5.4641    3.5000    0.0000 C   0  0  0  0  0  0  0  0  0  0  0  0
    2.0000   -3.5000    0.0000 C   0  0  0  0  0  0  0  0  0  0  0  0
    3.7320   -3.5000    0.0000 C   0  0  0  0  0  0  0  0  0  0  0  0
    2.8660   -4.0000    0.0000 C   0  0  0  0  0  0  0  0  0  0  0  0
    2.8660    2.8500    0.0000 H   1  0  0  0  0  0  0  0  0  0  0  0
    1.4631    0.8100    0.0000 H   0  0  0  0  0  0  0  0  0  0  0  0
    4.2690    0.8100    0.0000 H   0  0  0  0  0  0  0  0  0  0  0  0
    1.4631   -0.8100    0.0000 H   0  0  0  0  0  0  0  0  0  0  0  0
    4.2690   -0.8100    0.0000 H   0  0  0  0  0  0  0  0  0  0  0  0
    4.5981    1.3800    0.0000 H   0  0  0  0  0  0  0  0  0  0  0  0
    3.1951    3.8100    0.0000 H   0  0  0  0  0  0  0  0  0  0  0  0
    1.4631   -2.1900    0.0000 H   0  0  0  0  0  0  0  0  0  0  0  0
    4.2690   -2.1900    0.0000 H   0  0  0  0  0  0  0  0  0  0  0  0
    2.0000    3.1200    0.0000 H   0  0  0  0  0  0  0  0  0  0  0  0
    6.0010    2.1900    0.0000 H   0  0  0  0  0  0  0  0  0  0  0  0
    4.5981    4.6200    0.0000 H   0  0  0  0  0  0  0  0  0  0  0  0
    6.0010    3.8100    0.0000 H   0  0  0  0  0  0  0  0  0  0  0  0
    1.4631   -3.8100    0.0000 H   0  0  0  0  0  0  0  0  0  0  0  0
    4.2690   -3.8100    0.0000 H   0  0  0  0  0  0  0  0  0  0  0  0
    2.8660   -4.6200    0.0000 H   0  0  0  0  0  0  0  0  0  0  0  0
  1  2  1  0  0  0  0
  1 30  1  0  0  0  0
  2  3  1  0  0  0  0
  2  4  1  0  0  0  0
  2 21  1  0  0  0  0
  3  6  2  0  0  0  0
  3  7  1  0  0  0  0
  4 11  2  0  0  0  0
  4 12  1  0  0  0  0
  5  8  2  0  0  0  0
  5  9  1  0  0  0  0
  5 10  1  0  0  0  0
  6  8  1  0  0  0  0
  6 22  1  0  0  0  0
  7  9  2  0  0  0  0
  7 23  1  0  0  0  0
  8 24  1  0  0  0  0
  9 25  1  0  0  0  0
 10 13  2  0  0  0  0
 10 14  1  0  0  0  0
 11 15  1  0  0  0  0
 11 26  1  0  0  0  0
 12 16  2  0  0  0  0
 12 27  1  0  0  0  0
 13 18  1  0  0  0  0
 13 28  1  0  0  0  0
 14 19  2  0  0  0  0
 14 29  1  0  0  0  0
 15 17  2  0  0  0  0
 15 31  1  0  0  0  0
 16 17  1  0  0  0  0
 16 32  1  0  0  0  0
 17 33  1  0  0  0  0
 18 20  2  0  0  0  0
 18 34  1  0  0  0  0
 19 20  1  0  0  0  0
 19 35  1  0  0  0  0
 20 36  1  0  0  0  0
M  ISO  1  21   2
M  END
> <PUBCHEM_COMPOUND_CID>
44725902

> <PUBCHEM_COMPOUND_CANONICALIZED>
1

> <PUBCHEM_CACTVS_COMPLEXITY>
268

> <PUBCHEM_CACTVS_HBOND_ACCEPTOR>
1

> <PUBCHEM_CACTVS_HBOND_DONOR>
1

> <PUBCHEM_CACTVS_ROTATABLE_BOND>
3

> <PUBCHEM_CACTVS_SUBSKEYS>
AAADceB4IAAAAAAAAAAAAAAAAAAAAAAAAAAwYMAAAAAAAAABUAAAGgAACAAADBSgmAIwAIAAAgCAAiBCAAACAAAgAAAIiAAACIgINiKAERCAcAAkwAEImAeAwPAOwAAAAAAAAACAAAAAAAAAAAAAAAAAAA==

> <PUBCHEM_IUPAC_OPENEYE_NAME>
deuterio-phenyl-(4-phenylphenyl)methanol

> <PUBCHEM_IUPAC_CAS_NAME>
deuterio-phenyl-(4-phenylphenyl)methanol

> <PUBCHEM_IUPAC_NAME>
deuterio-phenyl-(4-phenylphenyl)methanol

> <PUBCHEM_IUPAC_SYSTEMATIC_NAME>
deuterio-phenyl-(4-phenylphenyl)methanol

> <PUBCHEM_IUPAC_TRADITIONAL_NAME>
deuterio-phenyl-(4-phenylphenyl)methanol

> <PUBCHEM_IUPAC_INCHI>
InChI=1S/C19H16O/c20-19(17-9-5-2-6-10-17)18-13-11-16(12-14-18)15-7-3-1-4-8-15/h1-14,19-20H/i19D

> <PUBCHEM_IUPAC_INCHIKEY>
WMFZVLIHQVUVGO-YUIGOLOMSA-N

> <PUBCHEM_XLOGP3>
4.3

> <PUBCHEM_EXACT_MASS>
261.126392

> <PUBCHEM_MOLECULAR_FORMULA>
C19H16O

> <PUBCHEM_MOLECULAR_WEIGHT>
261.335902

> <PUBCHEM_OPENEYE_CAN_SMILES>
C1=CC=C(C=C1)C2=CC=C(C=C2)C(C3=CC=CC=C3)O

> <PUBCHEM_OPENEYE_ISO_SMILES>
[2H]C(C1=CC=CC=C1)(C2=CC=C(C=C2)C3=CC=CC=C3)O

> <PUBCHEM_CACTVS_TPSA>
20.2

> <PUBCHEM_MONOISOTOPIC_WEIGHT>
261.126392

> <PUBCHEM_TOTAL_CHARGE>
0

> <PUBCHEM_HEAVY_ATOM_COUNT>
20

> <PUBCHEM_ATOM_DEF_STEREO_COUNT>
0

> <PUBCHEM_ATOM_UDEF_STEREO_COUNT>
1

> <PUBCHEM_BOND_DEF_STEREO_COUNT>
0

> <PUBCHEM_BOND_UDEF_STEREO_COUNT>
0

> <PUBCHEM_ISOTOPIC_ATOM_COUNT>
1

> <PUBCHEM_COMPONENT_COUNT>
1

> <PUBCHEM_CACTVS_TAUTO_COUNT>
1

> <PUBCHEM_COORDINATE_TYPE>
1
5
255

> <PUBCHEM_BONDANNOTATIONS>
10  13  8
10  14  8
11  15  8
12  16  8
13  18  8
14  19  8
15  17  8
16  17  8
18  20  8
19  20  8
2  21  3
3  6  8
3  7  8
4  11  8
4  12  8
5  8  8
5  9  8
6  8  8
7  9  8

$$$$
