51273551
  -OEChem-11301218002D

 46 49  0     1  0  0  0  0  0999 V2000
    7.9244   -0.3814    0.0000 O   0  0  0  0  0  0  0  0  0  0  0  0
    7.5673    1.3134    0.0000 N   0  0  0  0  0  0  0  0  0  0  0  0
    4.6783   -3.5600    0.0000 N   0  0  0  0  0  0  0  0  0  0  0  0
    8.5458    1.5196    0.0000 C   0  0  3  0  0  0  0  0  0  0  0  0
    9.2828    0.8526    0.0000 C   0  0  0  0  0  0  0  0  0  0  0  0
   10.1458    1.3459    0.0000 C   0  0  0  0  0  0  0  0  0  0  0  0
    8.9509    2.4274    0.0000 C   0  0  0  0  0  0  0  0  0  0  0  0
    9.9450    2.3195    0.0000 C   0  0  0  0  0  0  0  0  0  0  0  0
    8.5473    3.3424    0.0000 C   0  0  0  0  0  0  0  0  0  0  0  0
   10.5356    3.1264    0.0000 C   0  0  0  0  0  0  0  0  0  0  0  0
    6.2781    0.1567    0.0000 C   0  0  0  0  0  0  0  0  0  0  0  0
    7.2566    0.3629    0.0000 C   0  0  0  0  0  0  0  0  0  0  0  0
    5.9674   -0.7938    0.0000 C   0  0  0  0  0  0  0  0  0  0  0  0
    4.9889   -1.0001    0.0000 C   0  0  0  0  0  0  0  0  0  0  0  0
    4.6783   -1.9506    0.0000 C   0  0  0  0  0  0  0  0  0  0  0  0
    9.1379    4.1494    0.0000 C   0  0  0  0  0  0  0  0  0  0  0  0
   10.1321    4.0414    0.0000 C   0  0  0  0  0  0  0  0  0  0  0  0
    3.7320   -2.2553    0.0000 C   0  0  0  0  0  0  0  0  0  0  0  0
    3.7320   -3.2553    0.0000 C   0  0  0  0  0  0  0  0  0  0  0  0
    5.2619   -2.7553    0.0000 C   0  0  0  0  0  0  0  0  0  0  0  0
    2.8660   -1.7553    0.0000 C   0  0  0  0  0  0  0  0  0  0  0  0
    2.8660   -3.7553    0.0000 C   0  0  0  0  0  0  0  0  0  0  0  0
    2.0000   -2.2553    0.0000 C   0  0  0  0  0  0  0  0  0  0  0  0
    2.0000   -3.2553    0.0000 C   0  0  0  0  0  0  0  0  0  0  0  0
    8.3840    0.9211    0.0000 H   0  0  0  0  0  0  0  0  0  0  0  0
    8.8207    0.4392    0.0000 H   0  0  0  0  0  0  0  0  0  0  0  0
    9.6453    0.3496    0.0000 H   0  0  0  0  0  0  0  0  0  0  0  0
   10.3952    0.7782    0.0000 H   0  0  0  0  0  0  0  0  0  0  0  0
   10.7365    1.5342    0.0000 H   0  0  0  0  0  0  0  0  0  0  0  0
    7.1532    1.7749    0.0000 H   0  0  0  0  0  0  0  0  0  0  0  0
    7.9309    3.4093    0.0000 H   0  0  0  0  0  0  0  0  0  0  0  0
   11.1520    3.0595    0.0000 H   0  0  0  0  0  0  0  0  0  0  0  0
    6.2575    0.7763    0.0000 H   0  0  0  0  0  0  0  0  0  0  0  0
    5.6643    0.2440    0.0000 H   0  0  0  0  0  0  0  0  0  0  0  0
    5.9880   -1.4135    0.0000 H   0  0  0  0  0  0  0  0  0  0  0  0
    6.5812   -0.8812    0.0000 H   0  0  0  0  0  0  0  0  0  0  0  0
    4.9684   -0.3804    0.0000 H   0  0  0  0  0  0  0  0  0  0  0  0
    4.3751   -0.9127    0.0000 H   0  0  0  0  0  0  0  0  0  0  0  0
    8.8877    4.7166    0.0000 H   0  0  0  0  0  0  0  0  0  0  0  0
   10.4982    4.5417    0.0000 H   0  0  0  0  0  0  0  0  0  0  0  0
    5.8819   -2.7553    0.0000 H   0  0  0  0  0  0  0  0  0  0  0  0
    4.8709   -4.1494    0.0000 H   0  0  0  0  0  0  0  0  0  0  0  0
    2.8660   -1.1353    0.0000 H   0  0  0  0  0  0  0  0  0  0  0  0
    2.8660   -4.3753    0.0000 H   0  0  0  0  0  0  0  0  0  0  0  0
    1.4631   -1.9453    0.0000 H   0  0  0  0  0  0  0  0  0  0  0  0
    1.4631   -3.5653    0.0000 H   0  0  0  0  0  0  0  0  0  0  0  0
  1 12  2  0  0  0  0
  2  4  1  0  0  0  0
  2 12  1  0  0  0  0
  2 30  1  0  0  0  0
  3 19  1  0  0  0  0
  3 20  1  0  0  0  0
  3 42  1  0  0  0  0
  4  5  1  0  0  0  0
  4  7  1  0  0  0  0
  4 25  1  0  0  0  0
  5  6  1  0  0  0  0
  5 26  1  0  0  0  0
  5 27  1  0  0  0  0
  6  8  1  0  0  0  0
  6 28  1  0  0  0  0
  6 29  1  0  0  0  0
  7  8  1  0  0  0  0
  7  9  2  0  0  0  0
  8 10  2  0  0  0  0
  9 16  1  0  0  0  0
  9 31  1  0  0  0  0
 10 17  1  0  0  0  0
 10 32  1  0  0  0  0
 11 12  1  0  0  0  0
 11 13  1  0  0  0  0
 11 33  1  0  0  0  0
 11 34  1  0  0  0  0
 13 14  1  0  0  0  0
 13 35  1  0  0  0  0
 13 36  1  0  0  0  0
 14 15  1  0  0  0  0
 14 37  1  0  0  0  0
 14 38  1  0  0  0  0
 15 18  1  0  0  0  0
 15 20  2  0  0  0  0
 16 17  2  0  0  0  0
 16 39  1  0  0  0  0
 17 40  1  0  0  0  0
 18 19  1  0  0  0  0
 18 21  2  0  0  0  0
 19 22  2  0  0  0  0
 20 41  1  0  0  0  0
 21 23  1  0  0  0  0
 21 43  1  0  0  0  0
 22 24  1  0  0  0  0
 22 44  1  0  0  0  0
 23 24  2  0  0  0  0
 23 45  1  0  0  0  0
 24 46  1  0  0  0  0
M  END
> <PUBCHEM_COMPOUND_CID>
51273551

> <PUBCHEM_COMPOUND_CANONICALIZED>
1

> <PUBCHEM_CACTVS_COMPLEXITY>
438

> <PUBCHEM_CACTVS_HBOND_ACCEPTOR>
1

> <PUBCHEM_CACTVS_HBOND_DONOR>
2

> <PUBCHEM_CACTVS_ROTATABLE_BOND>
5

> <PUBCHEM_CACTVS_SUBSKEYS>
AAADceB7IAAAAAAAAAAAAAAAAAAAAeIAAAAwYAAAAAAAAHgB9AAAHgAQAAAADCjBngQ8wPLJkACoAzV3VACCgCAxAiAI2aE4ZJgIIPLAkZGEIAhglgDIyAcYiMCOgAAAAAASAAAAAAAAACQAACAACQAAAA==

> <PUBCHEM_IUPAC_OPENEYE_NAME>
N-indan-1-yl-4-(1H-indol-3-yl)butanamide

> <PUBCHEM_IUPAC_CAS_NAME>
N-(2,3-dihydro-1H-inden-1-yl)-4-(1H-indol-3-yl)butanamide

> <PUBCHEM_IUPAC_NAME>
N-(2,3-dihydro-1H-inden-1-yl)-4-(1H-indol-3-yl)butanamide

> <PUBCHEM_IUPAC_SYSTEMATIC_NAME>
N-(2,3-dihydro-1H-inden-1-yl)-4-(1H-indol-3-yl)butanamide

> <PUBCHEM_IUPAC_TRADITIONAL_NAME>
N-indan-1-yl-4-(1H-indol-3-yl)butyramide

> <PUBCHEM_IUPAC_INCHI>
InChI=1S/C21H22N2O/c24-21(23-20-13-12-15-6-1-2-8-17(15)20)11-5-7-16-14-22-19-10-4-3-9-18(16)19/h1-4,6,8-10,14,20,22H,5,7,11-13H2,(H,23,24)

> <PUBCHEM_IUPAC_INCHIKEY>
RDMQLVXMOOHLNH-UHFFFAOYSA-N

> <PUBCHEM_XLOGP3>
4

> <PUBCHEM_EXACT_MASS>
318.173213

> <PUBCHEM_MOLECULAR_FORMULA>
C21H22N2O

> <PUBCHEM_MOLECULAR_WEIGHT>
318.41218

> <PUBCHEM_OPENEYE_CAN_SMILES>
C1CC2=CC=CC=C2C1NC(=O)CCCC3=CNC4=CC=CC=C43

> <PUBCHEM_OPENEYE_ISO_SMILES>
C1CC2=CC=CC=C2C1NC(=O)CCCC3=CNC4=CC=CC=C43

> <PUBCHEM_CACTVS_TPSA>
44.9

> <PUBCHEM_MONOISOTOPIC_WEIGHT>
318.173213

> <PUBCHEM_TOTAL_CHARGE>
0

> <PUBCHEM_HEAVY_ATOM_COUNT>
24

> <PUBCHEM_ATOM_DEF_STEREO_COUNT>
0

> <PUBCHEM_ATOM_UDEF_STEREO_COUNT>
1

> <PUBCHEM_BOND_DEF_STEREO_COUNT>
0

> <PUBCHEM_BOND_UDEF_STEREO_COUNT>
0

> <PUBCHEM_ISOTOPIC_ATOM_COUNT>
0

> <PUBCHEM_COMPONENT_COUNT>
1

> <PUBCHEM_CACTVS_TAUTO_COUNT>
2

> <PUBCHEM_COORDINATE_TYPE>
1
5
255

> <PUBCHEM_BONDANNOTATIONS>
10  17  8
15  18  8
15  20  8
16  17  8
18  19  8
18  21  8
19  22  8
4  2  3
21  23  8
22  24  8
23  24  8
3  19  8
3  20  8
7  8  8
7  9  8
8  10  8
9  16  8

$$$$
51273573
  -OEChem-11301218002D

 36 38  0     1  0  0  0  0  0999 V2000
   10.1921    2.0994    0.0000 Br  0  0  0  0  0  0  0  0  0  0  0  0
    6.6353   -0.4203    0.0000 O   0  0  0  0  0  0  0  0  0  0  0  0
    4.9889    0.1178    0.0000 N   0  0  0  0  0  0  0  0  0  0  0  0
    4.6783   -0.8327    0.0000 C   0  0  3  0  0  0  0  0  0  0  0  0
    5.2619   -1.6375    0.0000 C   0  0  0  0  0  0  0  0  0  0  0  0
    4.6783   -2.4422    0.0000 C   0  0  0  0  0  0  0  0  0  0  0  0
    3.7320   -1.1375    0.0000 C   0  0  0  0  0  0  0  0  0  0  0  0
    3.7320   -2.1375    0.0000 C   0  0  0  0  0  0  0  0  0  0  0  0
    2.8660   -0.6375    0.0000 C   0  0  0  0  0  0  0  0  0  0  0  0
    2.8660   -2.6375    0.0000 C   0  0  0  0  0  0  0  0  0  0  0  0
    5.9674    0.3240    0.0000 C   0  0  0  0  0  0  0  0  0  0  0  0
    2.0000   -1.1375    0.0000 C   0  0  0  0  0  0  0  0  0  0  0  0
    2.0000   -2.1375    0.0000 C   0  0  0  0  0  0  0  0  0  0  0  0
    6.2781    1.2745    0.0000 C   0  0  0  0  0  0  0  0  0  0  0  0
    7.2566    1.4807    0.0000 C   0  0  0  0  0  0  0  0  0  0  0  0
    7.9244    0.7364    0.0000 C   0  0  0  0  0  0  0  0  0  0  0  0
    7.5673    2.4313    0.0000 C   0  0  0  0  0  0  0  0  0  0  0  0
    8.9030    0.9427    0.0000 C   0  0  0  0  0  0  0  0  0  0  0  0
    8.5458    2.6375    0.0000 C   0  0  0  0  0  0  0  0  0  0  0  0
    9.2136    1.8932    0.0000 C   0  0  0  0  0  0  0  0  0  0  0  0
    5.2908   -0.7365    0.0000 H   0  0  0  0  0  0  0  0  0  0  0  0
    5.7227   -2.0522    0.0000 H   0  0  0  0  0  0  0  0  0  0  0  0
    5.7227   -1.2228    0.0000 H   0  0  0  0  0  0  0  0  0  0  0  0
    4.4272   -3.0091    0.0000 H   0  0  0  0  0  0  0  0  0  0  0  0
    5.2156   -2.7514    0.0000 H   0  0  0  0  0  0  0  0  0  0  0  0
    4.5749    0.5792    0.0000 H   0  0  0  0  0  0  0  0  0  0  0  0
    2.8660   -0.0175    0.0000 H   0  0  0  0  0  0  0  0  0  0  0  0
    2.8660   -3.2575    0.0000 H   0  0  0  0  0  0  0  0  0  0  0  0
    1.4631   -0.8275    0.0000 H   0  0  0  0  0  0  0  0  0  0  0  0
    1.4631   -2.4475    0.0000 H   0  0  0  0  0  0  0  0  0  0  0  0
    6.2575    1.8942    0.0000 H   0  0  0  0  0  0  0  0  0  0  0  0
    5.6643    1.3619    0.0000 H   0  0  0  0  0  0  0  0  0  0  0  0
    7.7318    0.1471    0.0000 H   0  0  0  0  0  0  0  0  0  0  0  0
    7.1532    2.8927    0.0000 H   0  0  0  0  0  0  0  0  0  0  0  0
    9.3170    0.4812    0.0000 H   0  0  0  0  0  0  0  0  0  0  0  0
    8.7384    3.2268    0.0000 H   0  0  0  0  0  0  0  0  0  0  0  0
  1 20  1  0  0  0  0
  2 11  2  0  0  0  0
  3  4  1  0  0  0  0
  3 11  1  0  0  0  0
  3 26  1  0  0  0  0
  4  5  1  0  0  0  0
  4  7  1  0  0  0  0
  4 21  1  0  0  0  0
  5  6  1  0  0  0  0
  5 22  1  0  0  0  0
  5 23  1  0  0  0  0
  6  8  1  0  0  0  0
  6 24  1  0  0  0  0
  6 25  1  0  0  0  0
  7  8  1  0  0  0  0
  7  9  2  0  0  0  0
  8 10  2  0  0  0  0
  9 12  1  0  0  0  0
  9 27  1  0  0  0  0
 10 13  1  0  0  0  0
 10 28  1  0  0  0  0
 11 14  1  0  0  0  0
 12 13  2  0  0  0  0
 12 29  1  0  0  0  0
 13 30  1  0  0  0  0
 14 15  1  0  0  0  0
 14 31  1  0  0  0  0
 14 32  1  0  0  0  0
 15 16  2  0  0  0  0
 15 17  1  0  0  0  0
 16 18  1  0  0  0  0
 16 33  1  0  0  0  0
 17 19  2  0  0  0  0
 17 34  1  0  0  0  0
 18 20  2  0  0  0  0
 18 35  1  0  0  0  0
 19 20  1  0  0  0  0
 19 36  1  0  0  0  0
M  END
> <PUBCHEM_COMPOUND_CID>
51273573

> <PUBCHEM_COMPOUND_CANONICALIZED>
1

> <PUBCHEM_CACTVS_COMPLEXITY>
338

> <PUBCHEM_CACTVS_HBOND_ACCEPTOR>
1

> <PUBCHEM_CACTVS_HBOND_DONOR>
1

> <PUBCHEM_CACTVS_ROTATABLE_BOND>
3

> <PUBCHEM_CACTVS_SUBSKEYS>
AAADceB6IAAAEAAAAAAAAAAAAAAAAYAAAAAwYAAAAAAAAGABQAAAHgBQAAABrCjBmAQwAILAAACIAiFSEACCAAAgAAQIiIEIBKgIIDKAlRGEIAhglgCIihcYiICOggAAAAAQAAAEAAAAACAAACAACQAAAA==

> <PUBCHEM_IUPAC_OPENEYE_NAME>
2-(4-bromophenyl)-N-indan-1-yl-acetamide

> <PUBCHEM_IUPAC_CAS_NAME>
2-(4-bromophenyl)-N-(2,3-dihydro-1H-inden-1-yl)acetamide

> <PUBCHEM_IUPAC_NAME>
2-(4-bromophenyl)-N-(2,3-dihydro-1H-inden-1-yl)acetamide

> <PUBCHEM_IUPAC_SYSTEMATIC_NAME>
2-(4-bromophenyl)-N-(2,3-dihydro-1H-inden-1-yl)ethanamide

> <PUBCHEM_IUPAC_TRADITIONAL_NAME>
2-(4-bromophenyl)-N-indan-1-yl-acetamide

> <PUBCHEM_IUPAC_INCHI>
InChI=1S/C17H16BrNO/c18-14-8-5-12(6-9-14)11-17(20)19-16-10-7-13-3-1-2-4-15(13)16/h1-6,8-9,16H,7,10-11H2,(H,19,20)

> <PUBCHEM_IUPAC_INCHIKEY>
MRGPRQHBIKVXFK-UHFFFAOYSA-N

> <PUBCHEM_XLOGP3>
4.2

> <PUBCHEM_EXACT_MASS>
329.041526

> <PUBCHEM_MOLECULAR_FORMULA>
C17H16BrNO

> <PUBCHEM_MOLECULAR_WEIGHT>
330.21904

> <PUBCHEM_OPENEYE_CAN_SMILES>
C1CC2=CC=CC=C2C1NC(=O)CC3=CC=C(C=C3)Br

> <PUBCHEM_OPENEYE_ISO_SMILES>
C1CC2=CC=CC=C2C1NC(=O)CC3=CC=C(C=C3)Br

> <PUBCHEM_CACTVS_TPSA>
29.1

> <PUBCHEM_MONOISOTOPIC_WEIGHT>
329.041526

> <PUBCHEM_TOTAL_CHARGE>
0

> <PUBCHEM_HEAVY_ATOM_COUNT>
20

> <PUBCHEM_ATOM_DEF_STEREO_COUNT>
0

> <PUBCHEM_ATOM_UDEF_STEREO_COUNT>
1

> <PUBCHEM_BOND_DEF_STEREO_COUNT>
0

> <PUBCHEM_BOND_UDEF_STEREO_COUNT>
0

> <PUBCHEM_ISOTOPIC_ATOM_COUNT>
0

> <PUBCHEM_COMPONENT_COUNT>
1

> <PUBCHEM_CACTVS_TAUTO_COUNT>
2

> <PUBCHEM_COORDINATE_TYPE>
1
5
255

> <PUBCHEM_BONDANNOTATIONS>
10  13  8
12  13  8
15  16  8
15  17  8
16  18  8
17  19  8
18  20  8
19  20  8
4  3  3
7  8  8
7  9  8
8  10  8
9  12  8

$$$$
51274194
  -OEChem-11301218012D

 41 43  0     1  0  0  0  0  0999 V2000
    6.6353   -0.9987    0.0000 O   0  0  0  0  0  0  0  0  0  0  0  0
    4.9889   -0.4606    0.0000 N   0  0  0  0  0  0  0  0  0  0  0  0
    6.2781    0.6961    0.0000 N   0  0  0  0  0  0  0  0  0  0  0  0
    4.6783   -1.4111    0.0000 C   0  0  3  0  0  0  0  0  0  0  0  0
    5.2619   -2.2158    0.0000 C   0  0  0  0  0  0  0  0  0  0  0  0
    4.6783   -3.0206    0.0000 C   0  0  0  0  0  0  0  0  0  0  0  0
    3.7320   -1.7158    0.0000 C   0  0  0  0  0  0  0  0  0  0  0  0
    3.7320   -2.7158    0.0000 C   0  0  0  0  0  0  0  0  0  0  0  0
    2.8660   -1.2158    0.0000 C   0  0  0  0  0  0  0  0  0  0  0  0
    2.8660   -3.2158    0.0000 C   0  0  0  0  0  0  0  0  0  0  0  0
    2.0000   -1.7158    0.0000 C   0  0  0  0  0  0  0  0  0  0  0  0
    2.0000   -2.7158    0.0000 C   0  0  0  0  0  0  0  0  0  0  0  0
    5.9674   -0.2544    0.0000 C   0  0  0  0  0  0  0  0  0  0  0  0
    7.2566    0.9024    0.0000 C   0  0  0  0  0  0  0  0  0  0  0  0
    7.5673    1.8529    0.0000 C   0  0  0  0  0  0  0  0  0  0  0  0
    8.5458    2.0591    0.0000 C   0  0  0  0  0  0  0  0  0  0  0  0
    9.2136    1.3148    0.0000 C   0  0  0  0  0  0  0  0  0  0  0  0
    8.8564    3.0096    0.0000 C   0  0  0  0  0  0  0  0  0  0  0  0
   10.1921    1.5210    0.0000 C   0  0  0  0  0  0  0  0  0  0  0  0
    9.8349    3.2158    0.0000 C   0  0  0  0  0  0  0  0  0  0  0  0
   10.5028    2.4715    0.0000 C   0  0  0  0  0  0  0  0  0  0  0  0
    5.2908   -1.3149    0.0000 H   0  0  0  0  0  0  0  0  0  0  0  0
    5.7227   -2.6306    0.0000 H   0  0  0  0  0  0  0  0  0  0  0  0
    5.7227   -1.8011    0.0000 H   0  0  0  0  0  0  0  0  0  0  0  0
    4.4272   -3.5875    0.0000 H   0  0  0  0  0  0  0  0  0  0  0  0
    5.2156   -3.3298    0.0000 H   0  0  0  0  0  0  0  0  0  0  0  0
    4.5749    0.0009    0.0000 H   0  0  0  0  0  0  0  0  0  0  0  0
    2.8660   -0.5958    0.0000 H   0  0  0  0  0  0  0  0  0  0  0  0
    2.8660   -3.8358    0.0000 H   0  0  0  0  0  0  0  0  0  0  0  0
    1.4631   -1.4058    0.0000 H   0  0  0  0  0  0  0  0  0  0  0  0
    1.4631   -3.0258    0.0000 H   0  0  0  0  0  0  0  0  0  0  0  0
    5.8640    1.1576    0.0000 H   0  0  0  0  0  0  0  0  0  0  0  0
    7.2772    0.2827    0.0000 H   0  0  0  0  0  0  0  0  0  0  0  0
    7.8704    0.8150    0.0000 H   0  0  0  0  0  0  0  0  0  0  0  0
    7.5467    2.4726    0.0000 H   0  0  0  0  0  0  0  0  0  0  0  0
    6.9534    1.9402    0.0000 H   0  0  0  0  0  0  0  0  0  0  0  0
    9.0210    0.7255    0.0000 H   0  0  0  0  0  0  0  0  0  0  0  0
    8.4424    3.4711    0.0000 H   0  0  0  0  0  0  0  0  0  0  0  0
   10.6062    1.0596    0.0000 H   0  0  0  0  0  0  0  0  0  0  0  0
   10.0276    3.8052    0.0000 H   0  0  0  0  0  0  0  0  0  0  0  0
   11.1095    2.5994    0.0000 H   0  0  0  0  0  0  0  0  0  0  0  0
  1 13  2  0  0  0  0
  2  4  1  0  0  0  0
  2 13  1  0  0  0  0
  2 27  1  0  0  0  0
  3 13  1  0  0  0  0
  3 14  1  0  0  0  0
  3 32  1  0  0  0  0
  4  5  1  0  0  0  0
  4  7  1  0  0  0  0
  4 22  1  0  0  0  0
  5  6  1  0  0  0  0
  5 23  1  0  0  0  0
  5 24  1  0  0  0  0
  6  8  1  0  0  0  0
  6 25  1  0  0  0  0
  6 26  1  0  0  0  0
  7  8  1  0  0  0  0
  7  9  2  0  0  0  0
  8 10  2  0  0  0  0
  9 11  1  0  0  0  0
  9 28  1  0  0  0  0
 10 12  1  0  0  0  0
 10 29  1  0  0  0  0
 11 12  2  0  0  0  0
 11 30  1  0  0  0  0
 12 31  1  0  0  0  0
 14 15  1  0  0  0  0
 14 33  1  0  0  0  0
 14 34  1  0  0  0  0
 15 16  1  0  0  0  0
 15 35  1  0  0  0  0
 15 36  1  0  0  0  0
 16 17  2  0  0  0  0
 16 18  1  0  0  0  0
 17 19  1  0  0  0  0
 17 37  1  0  0  0  0
 18 20  2  0  0  0  0
 18 38  1  0  0  0  0
 19 21  2  0  0  0  0
 19 39  1  0  0  0  0
 20 21  1  0  0  0  0
 20 40  1  0  0  0  0
 21 41  1  0  0  0  0
M  END
> <PUBCHEM_COMPOUND_CID>
51274194

> <PUBCHEM_COMPOUND_CANONICALIZED>
1

> <PUBCHEM_CACTVS_COMPLEXITY>
338

> <PUBCHEM_CACTVS_HBOND_ACCEPTOR>
1

> <PUBCHEM_CACTVS_HBOND_DONOR>
2

> <PUBCHEM_CACTVS_ROTATABLE_BOND>
4

> <PUBCHEM_CACTVS_SUBSKEYS>
AAADceB7IAAAAAAAAAAAAAAAAAAAAYAAAAAwYAAAAAAAAGABQAAAHgAQAAAADCjBGAQxAILAAACIAiBCEACCAAAgAAAIiIAIBIiIICKAkRGEIAholgIIiAcQgIAOgAAAAAAQAAAAAAAAACAAACAACQAAAA==

> <PUBCHEM_IUPAC_OPENEYE_NAME>
1-indan-1-yl-3-(2-phenylethyl)urea

> <PUBCHEM_IUPAC_CAS_NAME>
1-(2,3-dihydro-1H-inden-1-yl)-3-(2-phenylethyl)urea

> <PUBCHEM_IUPAC_NAME>
1-(2,3-dihydro-1H-inden-1-yl)-3-(2-phenylethyl)urea

> <PUBCHEM_IUPAC_SYSTEMATIC_NAME>
1-(2,3-dihydro-1H-inden-1-yl)-3-(2-phenylethyl)urea

> <PUBCHEM_IUPAC_TRADITIONAL_NAME>
1-indan-1-yl-3-phenethyl-urea

> <PUBCHEM_IUPAC_INCHI>
InChI=1S/C18H20N2O/c21-18(19-13-12-14-6-2-1-3-7-14)20-17-11-10-15-8-4-5-9-16(15)17/h1-9,17H,10-13H2,(H2,19,20,21)

> <PUBCHEM_IUPAC_INCHIKEY>
OFNXPHPLQQPEBF-UHFFFAOYSA-N

> <PUBCHEM_XLOGP3>
3.7

> <PUBCHEM_EXACT_MASS>
280.157563

> <PUBCHEM_MOLECULAR_FORMULA>
C18H20N2O

> <PUBCHEM_MOLECULAR_WEIGHT>
280.3642

> <PUBCHEM_OPENEYE_CAN_SMILES>
C1CC2=CC=CC=C2C1NC(=O)NCCC3=CC=CC=C3

> <PUBCHEM_OPENEYE_ISO_SMILES>
C1CC2=CC=CC=C2C1NC(=O)NCCC3=CC=CC=C3

> <PUBCHEM_CACTVS_TPSA>
41.1

> <PUBCHEM_MONOISOTOPIC_WEIGHT>
280.157563

> <PUBCHEM_TOTAL_CHARGE>
0

> <PUBCHEM_HEAVY_ATOM_COUNT>
21

> <PUBCHEM_ATOM_DEF_STEREO_COUNT>
0

> <PUBCHEM_ATOM_UDEF_STEREO_COUNT>
1

> <PUBCHEM_BOND_DEF_STEREO_COUNT>
0

> <PUBCHEM_BOND_UDEF_STEREO_COUNT>
0

> <PUBCHEM_ISOTOPIC_ATOM_COUNT>
0

> <PUBCHEM_COMPONENT_COUNT>
1

> <PUBCHEM_CACTVS_TAUTO_COUNT>
3

> <PUBCHEM_COORDINATE_TYPE>
1
5
255

> <PUBCHEM_BONDANNOTATIONS>
10  12  8
11  12  8
16  17  8
16  18  8
17  19  8
18  20  8
19  21  8
4  2  3
20  21  8
7  8  8
7  9  8
8  10  8
9  11  8

$$$$
