71275249
  -OEChem-04271307542D

 29 31  0     0  0  0  0  0  0999 V2000
    9.6814   -0.1388    0.0000 P   0  0  0  0  0  0  0  0  0  0  0  0
    8.3987   -1.3027    0.0000 O   0  0  0  0  0  0  0  0  0  0  0  0
    8.0321    0.3901    0.0000 N   0  0  0  0  0  0  0  0  0  0  0  0
    4.5274    1.3027    0.0000 C   0  0  0  0  0  0  0  0  0  0  0  0
    5.3364    0.7149    0.0000 C   0  0  0  0  0  0  0  0  0  0  0  0
    5.0274   -0.2362    0.0000 C   0  0  0  0  0  0  0  0  0  0  0  0
    3.7183    0.7149    0.0000 C   0  0  0  0  0  0  0  0  0  0  0  0
    4.0274   -0.2362    0.0000 C   0  0  0  0  0  0  0  0  0  0  0  0
    6.3518    0.9471    0.0000 C   0  0  0  0  0  0  0  0  0  0  0  0
    5.7123   -1.0209    0.0000 C   0  0  0  0  0  0  0  0  0  0  0  0
    2.7029    0.9471    0.0000 C   0  0  0  0  0  0  0  0  0  0  0  0
    3.3424   -1.0209    0.0000 C   0  0  0  0  0  0  0  0  0  0  0  0
    7.0547    0.1784    0.0000 C   0  0  0  0  0  0  0  0  0  0  0  0
    6.7328   -0.8122    0.0000 C   0  0  0  0  0  0  0  0  0  0  0  0
    2.0000    0.1784    0.0000 C   0  0  0  0  0  0  0  0  0  0  0  0
    2.3219   -0.8122    0.0000 C   0  0  0  0  0  0  0  0  0  0  0  0
    8.7040   -0.3504    0.0000 C   0  0  0  0  0  0  0  0  0  0  0  0
    4.9422    1.7634    0.0000 H   0  0  0  0  0  0  0  0  0  0  0  0
    4.1125    1.7634    0.0000 H   0  0  0  0  0  0  0  0  0  0  0  0
    6.5365    1.5390    0.0000 H   0  0  0  0  0  0  0  0  0  0  0  0
    5.5139   -1.6083    0.0000 H   0  0  0  0  0  0  0  0  0  0  0  0
    2.5182    1.5390    0.0000 H   0  0  0  0  0  0  0  0  0  0  0  0
    3.5408   -1.6083    0.0000 H   0  0  0  0  0  0  0  0  0  0  0  0
    7.1459   -1.2746    0.0000 H   0  0  0  0  0  0  0  0  0  0  0  0
    1.3940    0.3097    0.0000 H   0  0  0  0  0  0  0  0  0  0  0  0
    1.9088   -1.2746    0.0000 H   0  0  0  0  0  0  0  0  0  0  0  0
    8.2214    0.9805    0.0000 H   0  0  0  0  0  0  0  0  0  0  0  0
   10.0980   -0.5979    0.0000 H   0  0  0  0  0  0  0  0  0  0  0  0
    9.8707    0.4516    0.0000 H   0  0  0  0  0  0  0  0  0  0  0  0
  1 17  1  0  0  0  0
  1 28  1  0  0  0  0
  1 29  1  0  0  0  0
  2 17  2  0  0  0  0
  3 13  1  0  0  0  0
  3 17  1  0  0  0  0
  3 27  1  0  0  0  0
  4  5  1  0  0  0  0
  4  7  1  0  0  0  0
  4 18  1  0  0  0  0
  4 19  1  0  0  0  0
  5  6  2  0  0  0  0
  5  9  1  0  0  0  0
  6  8  1  0  0  0  0
  6 10  1  0  0  0  0
  7  8  1  0  0  0  0
  7 11  2  0  0  0  0
  8 12  2  0  0  0  0
  9 13  2  0  0  0  0
  9 20  1  0  0  0  0
 10 14  2  0  0  0  0
 10 21  1  0  0  0  0
 11 15  1  0  0  0  0
 11 22  1  0  0  0  0
 12 16  1  0  0  0  0
 12 23  1  0  0  0  0
 13 14  1  0  0  0  0
 14 24  1  0  0  0  0
 15 16  2  0  0  0  0
 15 25  1  0  0  0  0
 16 26  1  0  0  0  0
M  END
> <PUBCHEM_COMPOUND_CID>
71275249

> <PUBCHEM_COMPOUND_CANONICALIZED>
1

> <PUBCHEM_CACTVS_COMPLEXITY>
307

> <PUBCHEM_CACTVS_HBOND_ACCEPTOR>
1

> <PUBCHEM_CACTVS_HBOND_DONOR>
1

> <PUBCHEM_CACTVS_ROTATABLE_BOND>
1

> <PUBCHEM_CACTVS_SUBSKEYS>
AAADccByIAIAAAAAAAAAAAAAAAAAAYAAAAAwYAAAAAAAAGABQAAAHggQAAAQDAiBGAAwwILAAACIAiRCUACCAAAhAgAIiAAAZIgIICLAkZGEIAhglABIyAcQgMAOiAAAQAAQAAAQAACAACAAAQAACAAAAA==

> <PUBCHEM_IUPAC_OPENEYE_NAME>
N-(9H-fluoren-2-yl)-1-phosphanyl-formamide

> <PUBCHEM_IUPAC_CAS_NAME>
N-(9H-fluoren-2-yl)-1-phosphinoformamide

> <PUBCHEM_IUPAC_NAME>
N-(9H-fluoren-2-yl)-1-phosphanylformamide

> <PUBCHEM_IUPAC_SYSTEMATIC_NAME>
N-(9H-fluoren-2-yl)-1-phosphanyl-methanamide

> <PUBCHEM_IUPAC_TRADITIONAL_NAME>
N-(9H-fluoren-2-yl)-1-phosphino-formamide

> <PUBCHEM_IUPAC_INCHI>
InChI=1S/C14H12NOP/c16-14(17)15-11-5-6-13-10(8-11)7-9-3-1-2-4-12(9)13/h1-6,8H,7,17H2,(H,15,16)

> <PUBCHEM_IUPAC_INCHIKEY>
UIEHAODSWKRWIB-UHFFFAOYSA-N

> <PUBCHEM_XLOGP3>
3

> <PUBCHEM_EXACT_MASS>
241.065651

> <PUBCHEM_MOLECULAR_FORMULA>
C14H12NOP

> <PUBCHEM_MOLECULAR_WEIGHT>
241.224942

> <PUBCHEM_OPENEYE_CAN_SMILES>
C1C2=CC=CC=C2C3=C1C=C(C=C3)NC(=O)P

> <PUBCHEM_OPENEYE_ISO_SMILES>
C1C2=CC=CC=C2C3=C1C=C(C=C3)NC(=O)P

> <PUBCHEM_CACTVS_TPSA>
29.1

> <PUBCHEM_MONOISOTOPIC_WEIGHT>
241.065651

> <PUBCHEM_TOTAL_CHARGE>
0

> <PUBCHEM_HEAVY_ATOM_COUNT>
17

> <PUBCHEM_ATOM_DEF_STEREO_COUNT>
0

> <PUBCHEM_ATOM_UDEF_STEREO_COUNT>
0

> <PUBCHEM_BOND_DEF_STEREO_COUNT>
0

> <PUBCHEM_BOND_UDEF_STEREO_COUNT>
0

> <PUBCHEM_ISOTOPIC_ATOM_COUNT>
0

> <PUBCHEM_COMPONENT_COUNT>
1

> <PUBCHEM_CACTVS_TAUTO_COUNT>
2

> <PUBCHEM_COORDINATE_TYPE>
1
5
255

> <PUBCHEM_BONDANNOTATIONS>
10  14  8
11  15  8
12  16  8
13  14  8
15  16  8
5  6  8
5  9  8
6  10  8
7  11  8
7  8  8
8  12  8
9  13  8

$$$$
71276709
  -OEChem-04271307542D

 35 36  0     0  0  0  0  0  0999 V2000
    3.7320    0.4806    0.0000 O   0  0  0  0  0  0  0  0  0  0  0  0
    5.4641    0.4806    0.0000 N   0  0  0  0  0  0  0  0  0  0  0  0
    5.4641    1.4806    0.0000 C   0  0  0  0  0  0  0  0  0  0  0  0
    6.2731    2.0684    0.0000 C   0  0  0  0  0  0  0  0  0  0  0  0
    4.6551    2.0684    0.0000 C   0  0  0  0  0  0  0  0  0  0  0  0
    5.9641    3.0194    0.0000 C   0  0  0  0  0  0  0  0  0  0  0  0
    4.9641    3.0194    0.0000 C   0  0  0  0  0  0  0  0  0  0  0  0
    4.5981   -0.0194    0.0000 C   0  0  0  0  0  0  0  0  0  0  0  0
    4.5981   -1.0194    0.0000 C   0  0  0  0  0  0  0  0  0  0  0  0
    3.7320   -1.5194    0.0000 C   0  0  0  0  0  0  0  0  0  0  0  0
    2.8660   -1.0194    0.0000 C   0  0  0  0  0  0  0  0  0  0  0  0
    5.4641   -1.5194    0.0000 C   0  0  0  0  0  0  0  0  0  0  0  0
    3.7320   -2.5194    0.0000 C   0  0  0  0  0  0  0  0  0  0  0  0
    5.4641   -2.5194    0.0000 C   0  0  0  0  0  0  0  0  0  0  0  0
    4.5981   -3.0194    0.0000 C   0  0  0  0  0  0  0  0  0  0  0  0
    2.0000   -1.5194    0.0000 C   0  0  0  0  0  0  0  0  0  0  0  0
    6.0165    1.1991    0.0000 H   0  0  0  0  0  0  0  0  0  0  0  0
    4.0887    2.3205    0.0000 H   0  0  0  0  0  0  0  0  0  0  0  0
    4.3451    1.5314    0.0000 H   0  0  0  0  0  0  0  0  0  0  0  0
    6.5831    1.5314    0.0000 H   0  0  0  0  0  0  0  0  0  0  0  0
    6.8395    2.3205    0.0000 H   0  0  0  0  0  0  0  0  0  0  0  0
    5.0289    3.6360    0.0000 H   0  0  0  0  0  0  0  0  0  0  0  0
    4.3576    3.1483    0.0000 H   0  0  0  0  0  0  0  0  0  0  0  0
    6.5706    3.1483    0.0000 H   0  0  0  0  0  0  0  0  0  0  0  0
    5.8993    3.6360    0.0000 H   0  0  0  0  0  0  0  0  0  0  0  0
    6.0010    0.1706    0.0000 H   0  0  0  0  0  0  0  0  0  0  0  0
    3.2646   -0.5445    0.0000 H   0  0  0  0  0  0  0  0  0  0  0  0
    2.4675   -0.5445    0.0000 H   0  0  0  0  0  0  0  0  0  0  0  0
    6.0010   -1.2094    0.0000 H   0  0  0  0  0  0  0  0  0  0  0  0
    3.1951   -2.8294    0.0000 H   0  0  0  0  0  0  0  0  0  0  0  0
    6.0010   -2.8294    0.0000 H   0  0  0  0  0  0  0  0  0  0  0  0
    4.5981   -3.6394    0.0000 H   0  0  0  0  0  0  0  0  0  0  0  0
    1.6900   -0.9825    0.0000 H   0  0  0  0  0  0  0  0  0  0  0  0
    1.4631   -1.8294    0.0000 H   0  0  0  0  0  0  0  0  0  0  0  0
    2.3100   -2.0564    0.0000 H   0  0  0  0  0  0  0  0  0  0  0  0
  1  8  2  0  0  0  0
  2  3  1  0  0  0  0
  2  8  1  0  0  0  0
  2 26  1  0  0  0  0
  3  4  1  0  0  0  0
  3  5  1  0  0  0  0
  3 17  1  0  0  0  0
  4  6  1  0  0  0  0
  4 20  1  0  0  0  0
  4 21  1  0  0  0  0
  5  7  1  0  0  0  0
  5 18  1  0  0  0  0
  5 19  1  0  0  0  0
  6  7  1  0  0  0  0
  6 24  1  0  0  0  0
  6 25  1  0  0  0  0
  7 22  1  0  0  0  0
  7 23  1  0  0  0  0
  8  9  1  0  0  0  0
  9 10  1  0  0  0  0
  9 12  2  0  0  0  0
 10 11  1  0  0  0  0
 10 13  2  0  0  0  0
 11 16  1  0  0  0  0
 11 27  1  0  0  0  0
 11 28  1  0  0  0  0
 12 14  1  0  0  0  0
 12 29  1  0  0  0  0
 13 15  1  0  0  0  0
 13 30  1  0  0  0  0
 14 15  2  0  0  0  0
 14 31  1  0  0  0  0
 15 32  1  0  0  0  0
 16 33  1  0  0  0  0
 16 34  1  0  0  0  0
 16 35  1  0  0  0  0
M  END
> <PUBCHEM_COMPOUND_CID>
71276709

> <PUBCHEM_COMPOUND_CANONICALIZED>
1

> <PUBCHEM_CACTVS_COMPLEXITY>
233

> <PUBCHEM_CACTVS_HBOND_ACCEPTOR>
1

> <PUBCHEM_CACTVS_HBOND_DONOR>
1

> <PUBCHEM_CACTVS_ROTATABLE_BOND>
3

> <PUBCHEM_CACTVS_SUBSKEYS>
AAADceByIAAAAAAAAAAAAAAAAAAAAYAAAAAwAAAAAAAAAAABAAAAHgAQAAAADCjBmAQyAILAAACIAiFSEACCAAAkAAAIiIEIBMgIIDKAlRGEIQhglgCIiYcYiICOgAAAAAAQAAAAAAAAACAAAAAAAAAAAA==

> <PUBCHEM_IUPAC_OPENEYE_NAME>
N-cyclopentyl-2-ethyl-benzamide

> <PUBCHEM_IUPAC_CAS_NAME>
N-cyclopentyl-2-ethylbenzamide

> <PUBCHEM_IUPAC_NAME>
N-cyclopentyl-2-ethylbenzamide

> <PUBCHEM_IUPAC_SYSTEMATIC_NAME>
N-cyclopentyl-2-ethyl-benzamide

> <PUBCHEM_IUPAC_TRADITIONAL_NAME>
N-cyclopentyl-2-ethyl-benzamide

> <PUBCHEM_IUPAC_INCHI>
InChI=1S/C14H19NO/c1-2-11-7-3-6-10-13(11)14(16)15-12-8-4-5-9-12/h3,6-7,10,12H,2,4-5,8-9H2,1H3,(H,15,16)

> <PUBCHEM_IUPAC_INCHIKEY>
OLEZDIYKKYQDAO-UHFFFAOYSA-N

> <PUBCHEM_XLOGP3>
2.8

> <PUBCHEM_EXACT_MASS>
217.146664

> <PUBCHEM_MOLECULAR_FORMULA>
C14H19NO

> <PUBCHEM_MOLECULAR_WEIGHT>
217.30676

> <PUBCHEM_OPENEYE_CAN_SMILES>
CCC1=CC=CC=C1C(=O)NC2CCCC2

> <PUBCHEM_OPENEYE_ISO_SMILES>
CCC1=CC=CC=C1C(=O)NC2CCCC2

> <PUBCHEM_CACTVS_TPSA>
29.1

> <PUBCHEM_MONOISOTOPIC_WEIGHT>
217.146664

> <PUBCHEM_TOTAL_CHARGE>
0

> <PUBCHEM_HEAVY_ATOM_COUNT>
16

> <PUBCHEM_ATOM_DEF_STEREO_COUNT>
0

> <PUBCHEM_ATOM_UDEF_STEREO_COUNT>
0

> <PUBCHEM_BOND_DEF_STEREO_COUNT>
0

> <PUBCHEM_BOND_UDEF_STEREO_COUNT>
0

> <PUBCHEM_ISOTOPIC_ATOM_COUNT>
0

> <PUBCHEM_COMPONENT_COUNT>
1

> <PUBCHEM_CACTVS_TAUTO_COUNT>
2

> <PUBCHEM_COORDINATE_TYPE>
1
5
255

> <PUBCHEM_BONDANNOTATIONS>
10  13  8
12  14  8
13  15  8
14  15  8
9  10  8
9  12  8

$$$$
71282987
  -OEChem-04271307542D

 40 40  0     1  0  0  0  0  0999 V2000
    2.0000   -0.5000    0.0000 O   0  0  0  0  0  0  0  0  0  0  0  0
    3.7320   -0.5000    0.0000 N   0  0  0  0  0  0  0  0  0  0  0  0
    5.4641    2.5000    0.0000 C   0  0  3  0  0  0  0  0  0  0  0  0
    5.4641    3.5000    0.0000 C   0  0  0  0  0  0  0  0  0  0  0  0
    4.5981    2.0000    0.0000 C   0  0  0  0  0  0  0  0  0  0  0  0
    4.5981    1.0000    0.0000 C   0  0  0  0  0  0  0  0  0  0  0  0
    6.3301    2.0000    0.0000 C   0  0  0  0  0  0  0  0  0  0  0  0
    6.3301    4.0000    0.0000 C   0  0  0  0  0  0  0  0  0  0  0  0
    4.5981    4.0000    0.0000 C   0  0  0  0  0  0  0  0  0  0  0  0
    3.7320    0.5000    0.0000 C   0  0  0  0  0  0  0  0  0  0  0  0
    2.8660   -1.0000    0.0000 C   0  0  0  0  0  0  0  0  0  0  0  0
    2.8660   -2.0000    0.0000 C   0  0  0  0  0  0  0  0  0  0  0  0
    3.7320   -2.5000    0.0000 C   0  0  0  0  0  0  0  0  0  0  0  0
    2.0000   -2.5000    0.0000 C   0  0  0  0  0  0  0  0  0  0  0  0
    3.7320   -3.5000    0.0000 C   0  0  0  0  0  0  0  0  0  0  0  0
    2.0000   -3.5000    0.0000 C   0  0  0  0  0  0  0  0  0  0  0  0
    2.8660   -4.0000    0.0000 C   0  0  0  0  0  0  0  0  0  0  0  0
    5.4641    1.8800    0.0000 H   0  0  0  0  0  0  0  0  0  0  0  0
    5.4641    4.1200    0.0000 H   0  0  0  0  0  0  0  0  0  0  0  0
    4.3860    2.5826    0.0000 H   0  0  0  0  0  0  0  0  0  0  0  0
    3.9875    1.8923    0.0000 H   0  0  0  0  0  0  0  0  0  0  0  0
    4.8101    0.4174    0.0000 H   0  0  0  0  0  0  0  0  0  0  0  0
    5.2087    1.1077    0.0000 H   0  0  0  0  0  0  0  0  0  0  0  0
    6.0201    1.4631    0.0000 H   0  0  0  0  0  0  0  0  0  0  0  0
    6.8671    1.6900    0.0000 H   0  0  0  0  0  0  0  0  0  0  0  0
    6.6401    2.5369    0.0000 H   0  0  0  0  0  0  0  0  0  0  0  0
    4.9081    4.5369    0.0000 H   0  0  0  0  0  0  0  0  0  0  0  0
    6.6401    3.4631    0.0000 H   0  0  0  0  0  0  0  0  0  0  0  0
    6.8671    4.3100    0.0000 H   0  0  0  0  0  0  0  0  0  0  0  0
    6.0201    4.5369    0.0000 H   0  0  0  0  0  0  0  0  0  0  0  0
    4.0611    4.3100    0.0000 H   0  0  0  0  0  0  0  0  0  0  0  0
    4.2881    3.4631    0.0000 H   0  0  0  0  0  0  0  0  0  0  0  0
    3.5200    1.0826    0.0000 H   0  0  0  0  0  0  0  0  0  0  0  0
    3.1215    0.3923    0.0000 H   0  0  0  0  0  0  0  0  0  0  0  0
    4.2690   -0.8100    0.0000 H   0  0  0  0  0  0  0  0  0  0  0  0
    4.2690   -2.1900    0.0000 H   0  0  0  0  0  0  0  0  0  0  0  0
    1.4631   -2.1900    0.0000 H   0  0  0  0  0  0  0  0  0  0  0  0
    4.2690   -3.8100    0.0000 H   0  0  0  0  0  0  0  0  0  0  0  0
    1.4631   -3.8100    0.0000 H   0  0  0  0  0  0  0  0  0  0  0  0
    2.8660   -4.6200    0.0000 H   0  0  0  0  0  0  0  0  0  0  0  0
  1 11  2  0  0  0  0
  2 10  1  0  0  0  0
  2 11  1  0  0  0  0
  2 35  1  0  0  0  0
  3  4  1  0  0  0  0
  3  5  1  0  0  0  0
  3  7  1  0  0  0  0
  3 18  1  0  0  0  0
  4  8  1  0  0  0  0
  4  9  1  0  0  0  0
  4 19  1  0  0  0  0
  5  6  1  0  0  0  0
  5 20  1  0  0  0  0
  5 21  1  0  0  0  0
  6 10  1  0  0  0  0
  6 22  1  0  0  0  0
  6 23  1  0  0  0  0
  7 24  1  0  0  0  0
  7 25  1  0  0  0  0
  7 26  1  0  0  0  0
  8 28  1  0  0  0  0
  8 29  1  0  0  0  0
  8 30  1  0  0  0  0
  9 27  1  0  0  0  0
  9 31  1  0  0  0  0
  9 32  1  0  0  0  0
 10 33  1  0  0  0  0
 10 34  1  0  0  0  0
 11 12  1  0  0  0  0
 12 13  2  0  0  0  0
 12 14  1  0  0  0  0
 13 15  1  0  0  0  0
 13 36  1  0  0  0  0
 14 16  2  0  0  0  0
 14 37  1  0  0  0  0
 15 17  2  0  0  0  0
 15 38  1  0  0  0  0
 16 17  1  0  0  0  0
 16 39  1  0  0  0  0
 17 40  1  0  0  0  0
M  END
> <PUBCHEM_COMPOUND_CID>
71282987

> <PUBCHEM_COMPOUND_CANONICALIZED>
1

> <PUBCHEM_CACTVS_COMPLEXITY>
219

> <PUBCHEM_CACTVS_HBOND_ACCEPTOR>
1

> <PUBCHEM_CACTVS_HBOND_DONOR>
1

> <PUBCHEM_CACTVS_ROTATABLE_BOND>
6

> <PUBCHEM_CACTVS_SUBSKEYS>
AAADceByIAAAAAAAAAAAAAAAAAAAAAAAAAAwAAAAAAAAAAABAAAAHgAQAAAADQDBmAQyAILAAACIAiFSEACCAAAkAAAIiIEIBMgIIDKAlRGEIQhglgCIiYcYiACOgAAAAAAAAAAAAAAAAAAAAAAAAAAAAA==

> <PUBCHEM_IUPAC_OPENEYE_NAME>
N-(4,5-dimethylhexyl)benzamide

> <PUBCHEM_IUPAC_CAS_NAME>
N-(4,5-dimethylhexyl)benzamide

> <PUBCHEM_IUPAC_NAME>
N-(4,5-dimethylhexyl)benzamide

> <PUBCHEM_IUPAC_SYSTEMATIC_NAME>
N-(4,5-dimethylhexyl)benzamide

> <PUBCHEM_IUPAC_TRADITIONAL_NAME>
N-(4,5-dimethylhexyl)benzamide

> <PUBCHEM_IUPAC_INCHI>
InChI=1S/C15H23NO/c1-12(2)13(3)8-7-11-16-15(17)14-9-5-4-6-10-14/h4-6,9-10,12-13H,7-8,11H2,1-3H3,(H,16,17)

> <PUBCHEM_IUPAC_INCHIKEY>
FKQINDDYLQYMNX-UHFFFAOYSA-N

> <PUBCHEM_XLOGP3>
3.6

> <PUBCHEM_EXACT_MASS>
233.177964

> <PUBCHEM_MOLECULAR_FORMULA>
C15H23NO

> <PUBCHEM_MOLECULAR_WEIGHT>
233.34922

> <PUBCHEM_OPENEYE_CAN_SMILES>
CC(C)C(C)CCCNC(=O)C1=CC=CC=C1

> <PUBCHEM_OPENEYE_ISO_SMILES>
CC(C)C(C)CCCNC(=O)C1=CC=CC=C1

> <PUBCHEM_CACTVS_TPSA>
29.1

> <PUBCHEM_MONOISOTOPIC_WEIGHT>
233.177964

> <PUBCHEM_TOTAL_CHARGE>
0

> <PUBCHEM_HEAVY_ATOM_COUNT>
17

> <PUBCHEM_ATOM_DEF_STEREO_COUNT>
0

> <PUBCHEM_ATOM_UDEF_STEREO_COUNT>
1

> <PUBCHEM_BOND_DEF_STEREO_COUNT>
0

> <PUBCHEM_BOND_UDEF_STEREO_COUNT>
0

> <PUBCHEM_ISOTOPIC_ATOM_COUNT>
0

> <PUBCHEM_COMPONENT_COUNT>
1

> <PUBCHEM_CACTVS_TAUTO_COUNT>
2

> <PUBCHEM_COORDINATE_TYPE>
1
5
255

> <PUBCHEM_BONDANNOTATIONS>
12  13  8
12  14  8
13  15  8
14  16  8
15  17  8
16  17  8
3  7  3

$$$$
71284388
  -OEChem-04271307542D

 33 34  0     0  0  0  0  0  0999 V2000
    4.5981   -1.8776    0.0000 O   0  0  0  0  0  0  0  0  0  0  0  0
    8.1424    0.9271    0.0000 N   0  0  0  0  0  0  0  0  0  0  0  0
    7.1962    0.6224    0.0000 C   0  0  0  0  0  0  0  0  0  0  0  0
    7.1962   -0.3776    0.0000 C   0  0  0  0  0  0  0  0  0  0  0  0
    8.7260    0.1224    0.0000 C   0  0  0  0  0  0  0  0  0  0  0  0
    8.1424   -0.6824    0.0000 C   0  0  0  0  0  0  0  0  0  0  0  0
    5.4641   -0.3776    0.0000 C   0  0  0  0  0  0  0  0  0  0  0  0
    6.3301   -0.8776    0.0000 C   0  0  0  0  0  0  0  0  0  0  0  0
    6.3301    1.1224    0.0000 C   0  0  0  0  0  0  0  0  0  0  0  0
    5.4641    0.6224    0.0000 C   0  0  0  0  0  0  0  0  0  0  0  0
    3.7320   -0.3776    0.0000 C   0  0  0  0  0  0  0  0  0  0  0  0
    4.5981   -0.8776    0.0000 C   0  0  0  0  0  0  0  0  0  0  0  0
    8.4530    1.8776    0.0000 C   0  0  0  0  0  0  0  0  0  0  0  0
    9.7260    0.1224    0.0000 C   0  0  0  0  0  0  0  0  0  0  0  0
    2.8660   -0.8776    0.0000 C   0  0  0  0  0  0  0  0  0  0  0  0
    2.0000   -0.3776    0.0000 C   0  0  0  0  0  0  0  0  0  0  0  0
    8.3350   -1.2717    0.0000 H   0  0  0  0  0  0  0  0  0  0  0  0
    6.3301   -1.4976    0.0000 H   0  0  0  0  0  0  0  0  0  0  0  0
    6.3301    1.7424    0.0000 H   0  0  0  0  0  0  0  0  0  0  0  0
    4.9272    0.9324    0.0000 H   0  0  0  0  0  0  0  0  0  0  0  0
    4.1306    0.0973    0.0000 H   0  0  0  0  0  0  0  0  0  0  0  0
    3.3335    0.0973    0.0000 H   0  0  0  0  0  0  0  0  0  0  0  0
    9.0424    1.6850    0.0000 H   0  0  0  0  0  0  0  0  0  0  0  0
    8.6456    2.4670    0.0000 H   0  0  0  0  0  0  0  0  0  0  0  0
    7.8637    2.0702    0.0000 H   0  0  0  0  0  0  0  0  0  0  0  0
    9.7260   -0.4976    0.0000 H   0  0  0  0  0  0  0  0  0  0  0  0
   10.3460    0.1224    0.0000 H   0  0  0  0  0  0  0  0  0  0  0  0
    9.7260    0.7424    0.0000 H   0  0  0  0  0  0  0  0  0  0  0  0
    2.4675   -1.3526    0.0000 H   0  0  0  0  0  0  0  0  0  0  0  0
    3.2646   -1.3526    0.0000 H   0  0  0  0  0  0  0  0  0  0  0  0
    2.3100    0.1593    0.0000 H   0  0  0  0  0  0  0  0  0  0  0  0
    1.4631   -0.0676    0.0000 H   0  0  0  0  0  0  0  0  0  0  0  0
    1.6900   -0.9146    0.0000 H   0  0  0  0  0  0  0  0  0  0  0  0
  1 12  2  0  0  0  0
  2  3  1  0  0  0  0
  2  5  1  0  0  0  0
  2 13  1  0  0  0  0
  3  4  2  0  0  0  0
  3  9  1  0  0  0  0
  4  6  1  0  0  0  0
  4  8  1  0  0  0  0
  5  6  2  0  0  0  0
  5 14  1  0  0  0  0
  6 17  1  0  0  0  0
  7  8  2  0  0  0  0
  7 10  1  0  0  0  0
  7 12  1  0  0  0  0
  8 18  1  0  0  0  0
  9 10  2  0  0  0  0
  9 19  1  0  0  0  0
 10 20  1  0  0  0  0
 11 12  1  0  0  0  0
 11 15  1  0  0  0  0
 11 21  1  0  0  0  0
 11 22  1  0  0  0  0
 13 23  1  0  0  0  0
 13 24  1  0  0  0  0
 13 25  1  0  0  0  0
 14 26  1  0  0  0  0
 14 27  1  0  0  0  0
 14 28  1  0  0  0  0
 15 16  1  0  0  0  0
 15 29  1  0  0  0  0
 15 30  1  0  0  0  0
 16 31  1  0  0  0  0
 16 32  1  0  0  0  0
 16 33  1  0  0  0  0
M  END
> <PUBCHEM_COMPOUND_CID>
71284388

> <PUBCHEM_COMPOUND_CANONICALIZED>
1

> <PUBCHEM_CACTVS_COMPLEXITY>
264

> <PUBCHEM_CACTVS_HBOND_ACCEPTOR>
1

> <PUBCHEM_CACTVS_HBOND_DONOR>
0

> <PUBCHEM_CACTVS_ROTATABLE_BOND>
3

> <PUBCHEM_CACTVS_SUBSKEYS>
AAADceByIAAAAAAAAAAAAAAAAAAAAWAAAAAwAAAAAAAAAFgB8AAAHgAAAAAADAyBngQywPMMEACoA6RyRACCgCAlAiAI2CE4ZNgIIPLAlZGEIQhggADIyYcYicCeCAACAAACAAAQAAQAAAQAAAAAAAAAAA==

> <PUBCHEM_IUPAC_OPENEYE_NAME>
1-(1,2-dimethylindol-5-yl)butan-1-one

> <PUBCHEM_IUPAC_CAS_NAME>
1-(1,2-dimethyl-5-indolyl)-1-butanone

> <PUBCHEM_IUPAC_NAME>
1-(1,2-dimethylindol-5-yl)butan-1-one

> <PUBCHEM_IUPAC_SYSTEMATIC_NAME>
1-(1,2-dimethylindol-5-yl)butan-1-one

> <PUBCHEM_IUPAC_TRADITIONAL_NAME>
1-(1,2-dimethylindol-5-yl)butan-1-one

> <PUBCHEM_IUPAC_INCHI>
InChI=1S/C14H17NO/c1-4-5-14(16)11-6-7-13-12(9-11)8-10(2)15(13)3/h6-9H,4-5H2,1-3H3

> <PUBCHEM_IUPAC_INCHIKEY>
CCZLOOVNNQRUHW-UHFFFAOYSA-N

> <PUBCHEM_XLOGP3>
3.3

> <PUBCHEM_EXACT_MASS>
215.131014

> <PUBCHEM_MOLECULAR_FORMULA>
C14H17NO

> <PUBCHEM_MOLECULAR_WEIGHT>
215.29088

> <PUBCHEM_OPENEYE_CAN_SMILES>
CCCC(=O)C1=CC2=C(C=C1)N(C(=C2)C)C

> <PUBCHEM_OPENEYE_ISO_SMILES>
CCCC(=O)C1=CC2=C(C=C1)N(C(=C2)C)C

> <PUBCHEM_CACTVS_TPSA>
22

> <PUBCHEM_MONOISOTOPIC_WEIGHT>
215.131014

> <PUBCHEM_TOTAL_CHARGE>
0

> <PUBCHEM_HEAVY_ATOM_COUNT>
16

> <PUBCHEM_ATOM_DEF_STEREO_COUNT>
0

> <PUBCHEM_ATOM_UDEF_STEREO_COUNT>
0

> <PUBCHEM_BOND_DEF_STEREO_COUNT>
0

> <PUBCHEM_BOND_UDEF_STEREO_COUNT>
0

> <PUBCHEM_ISOTOPIC_ATOM_COUNT>
0

> <PUBCHEM_COMPONENT_COUNT>
1

> <PUBCHEM_CACTVS_TAUTO_COUNT>
2

> <PUBCHEM_COORDINATE_TYPE>
1
5
255

> <PUBCHEM_BONDANNOTATIONS>
2  3  8
2  5  8
3  4  8
3  9  8
4  6  8
4  8  8
5  6  8
7  10  8
7  8  8
9  10  8

$$$$
71290686
  -OEChem-04271307552D

 32 33  0     0  0  0  0  0  0999 V2000
    2.5369   -0.1311    0.0000 O   0  0  0  0  0  0  0  0  0  0  0  0
    6.0812   -1.9358    0.0000 N   0  0  0  0  0  0  0  0  0  0  0  0
    7.3704    0.8304    0.0000 C   0  0  0  0  0  0  0  0  0  0  0  0
    7.6811    1.7809    0.0000 C   0  0  0  0  0  0  0  0  0  0  0  0
    6.3919    0.6241    0.0000 C   0  0  0  0  0  0  0  0  0  0  0  0
    6.0812   -0.3264    0.0000 C   0  0  0  0  0  0  0  0  0  0  0  0
    5.1350   -0.6311    0.0000 C   0  0  0  0  0  0  0  0  0  0  0  0
    5.1350   -1.6311    0.0000 C   0  0  0  0  0  0  0  0  0  0  0  0
    8.6596    1.9871    0.0000 C   0  0  0  0  0  0  0  0  0  0  0  0
    7.0132    2.5252    0.0000 C   0  0  0  0  0  0  0  0  0  0  0  0
    6.6648   -1.1311    0.0000 C   0  0  0  0  0  0  0  0  0  0  0  0
    4.2690   -0.1311    0.0000 C   0  0  0  0  0  0  0  0  0  0  0  0
    4.2690   -2.1311    0.0000 C   0  0  0  0  0  0  0  0  0  0  0  0
    3.4030   -0.6311    0.0000 C   0  0  0  0  0  0  0  0  0  0  0  0
    3.4030   -1.6311    0.0000 C   0  0  0  0  0  0  0  0  0  0  0  0
    7.3910    0.2107    0.0000 H   0  0  0  0  0  0  0  0  0  0  0  0
    7.9842    0.7430    0.0000 H   0  0  0  0  0  0  0  0  0  0  0  0
    7.0744    1.6530    0.0000 H   0  0  0  0  0  0  0  0  0  0  0  0
    6.3713    1.2438    0.0000 H   0  0  0  0  0  0  0  0  0  0  0  0
    5.7781    0.7115    0.0000 H   0  0  0  0  0  0  0  0  0  0  0  0
    8.7874    1.3804    0.0000 H   0  0  0  0  0  0  0  0  0  0  0  0
    9.2662    2.1150    0.0000 H   0  0  0  0  0  0  0  0  0  0  0  0
    7.4747    2.9392    0.0000 H   0  0  0  0  0  0  0  0  0  0  0  0
    6.5992    2.9866    0.0000 H   0  0  0  0  0  0  0  0  0  0  0  0
    6.5518    2.1111    0.0000 H   0  0  0  0  0  0  0  0  0  0  0  0
    8.5317    2.5938    0.0000 H   0  0  0  0  0  0  0  0  0  0  0  0
    7.2848   -1.1311    0.0000 H   0  0  0  0  0  0  0  0  0  0  0  0
    6.2738   -2.5252    0.0000 H   0  0  0  0  0  0  0  0  0  0  0  0
    4.2690    0.4889    0.0000 H   0  0  0  0  0  0  0  0  0  0  0  0
    4.2690   -2.7511    0.0000 H   0  0  0  0  0  0  0  0  0  0  0  0
    2.8660   -1.9411    0.0000 H   0  0  0  0  0  0  0  0  0  0  0  0
    2.0000   -0.4411    0.0000 H   0  0  0  0  0  0  0  0  0  0  0  0
  1 14  1  0  0  0  0
  1 32  1  0  0  0  0
  2  8  1  0  0  0  0
  2 11  1  0  0  0  0
  2 28  1  0  0  0  0
  3  4  1  0  0  0  0
  3  5  1  0  0  0  0
  3 16  1  0  0  0  0
  3 17  1  0  0  0  0
  4  9  1  0  0  0  0
  4 10  1  0  0  0  0
  4 18  1  0  0  0  0
  5  6  1  0  0  0  0
  5 19  1  0  0  0  0
  5 20  1  0  0  0  0
  6  7  1  0  0  0  0
  6 11  2  0  0  0  0
  7  8  2  0  0  0  0
  7 12  1  0  0  0  0
  8 13  1  0  0  0  0
  9 21  1  0  0  0  0
  9 22  1  0  0  0  0
  9 26  1  0  0  0  0
 10 23  1  0  0  0  0
 10 24  1  0  0  0  0
 10 25  1  0  0  0  0
 11 27  1  0  0  0  0
 12 14  2  0  0  0  0
 12 29  1  0  0  0  0
 13 15  2  0  0  0  0
 13 30  1  0  0  0  0
 14 15  1  0  0  0  0
 15 31  1  0  0  0  0
M  END
> <PUBCHEM_COMPOUND_CID>
71290686

> <PUBCHEM_COMPOUND_CANONICALIZED>
1

> <PUBCHEM_CACTVS_COMPLEXITY>
205

> <PUBCHEM_CACTVS_HBOND_ACCEPTOR>
1

> <PUBCHEM_CACTVS_HBOND_DONOR>
2

> <PUBCHEM_CACTVS_ROTATABLE_BOND>
3

> <PUBCHEM_CACTVS_SUBSKEYS>
AAADceByIAAAAAAAAAAAAAAAAAAAAWAAAAAwAAAAAAAAAFgB8AAAHgAQCAAADQzBngQ+xvLJkgCgAzRnRACCgCAxIiAI2aA+bJgIJuLCkZOEcAhk0BHI2Aew0PIOgEABAAACAAAAgAIAAAQAAAAAAAAAAA==

> <PUBCHEM_IUPAC_OPENEYE_NAME>
3-isopentyl-1H-indol-5-ol

> <PUBCHEM_IUPAC_CAS_NAME>
3-(3-methylbutyl)-1H-indol-5-ol

> <PUBCHEM_IUPAC_NAME>
3-(3-methylbutyl)-1H-indol-5-ol

> <PUBCHEM_IUPAC_SYSTEMATIC_NAME>
3-(3-methylbutyl)-1H-indol-5-ol

> <PUBCHEM_IUPAC_TRADITIONAL_NAME>
3-isoamyl-1H-indol-5-ol

> <PUBCHEM_IUPAC_INCHI>
InChI=1S/C13H17NO/c1-9(2)3-4-10-8-14-13-6-5-11(15)7-12(10)13/h5-9,14-15H,3-4H2,1-2H3

> <PUBCHEM_IUPAC_INCHIKEY>
JNBWRMLOLLLIGI-UHFFFAOYSA-N

> <PUBCHEM_XLOGP3>
3

> <PUBCHEM_EXACT_MASS>
203.131014

> <PUBCHEM_MOLECULAR_FORMULA>
C13H17NO

> <PUBCHEM_MOLECULAR_WEIGHT>
203.28018

> <PUBCHEM_OPENEYE_CAN_SMILES>
CC(C)CCC1=CNC2=C1C=C(C=C2)O

> <PUBCHEM_OPENEYE_ISO_SMILES>
CC(C)CCC1=CNC2=C1C=C(C=C2)O

> <PUBCHEM_CACTVS_TPSA>
36

> <PUBCHEM_MONOISOTOPIC_WEIGHT>
203.131014

> <PUBCHEM_TOTAL_CHARGE>
0

> <PUBCHEM_HEAVY_ATOM_COUNT>
15

> <PUBCHEM_ATOM_DEF_STEREO_COUNT>
0

> <PUBCHEM_ATOM_UDEF_STEREO_COUNT>
0

> <PUBCHEM_BOND_DEF_STEREO_COUNT>
0

> <PUBCHEM_BOND_UDEF_STEREO_COUNT>
0

> <PUBCHEM_ISOTOPIC_ATOM_COUNT>
0

> <PUBCHEM_COMPONENT_COUNT>
1

> <PUBCHEM_CACTVS_TAUTO_COUNT>
9

> <PUBCHEM_COORDINATE_TYPE>
1
5
255

> <PUBCHEM_BONDANNOTATIONS>
12  14  8
13  15  8
14  15  8
2  11  8
2  8  8
6  11  8
6  7  8
7  12  8
7  8  8
8  13  8

$$$$
