28601257
  -OEChem-12041211362D

 26 26  0     0  0  0  0  0  0999 V2000
    2.5000   -0.5600    0.0000 N   0  0  0  0  0  0  0  0  0  0  0  0
    3.5000    1.4400    0.0000 N   0  3  0  0  0  0  0  0  0  0  0  0
    5.2321    1.4400    0.0000 N   0  0  0  0  0  0  0  0  0  0  0  0
    3.5000   -0.5600    0.0000 C   0  0  0  0  0  0  0  0  0  0  0  0
    4.3661   -0.0600    0.0000 C   0  0  0  0  0  0  0  0  0  0  0  0
    3.5000   -1.5600    0.0000 C   0  0  0  0  0  0  0  0  0  0  0  0
    5.2321   -0.5600    0.0000 C   0  0  0  0  0  0  0  0  0  0  0  0
    4.3661    0.9400    0.0000 C   0  0  0  0  0  0  0  0  0  0  0  0
    2.0000   -1.4259    0.0000 C   0  0  0  0  0  0  0  0  0  0  0  0
    2.0000    0.3060    0.0000 C   0  0  0  0  0  0  0  0  0  0  0  0
    4.3661   -2.0600    0.0000 C   0  0  0  0  0  0  0  0  0  0  0  0
    5.2321   -1.5600    0.0000 C   0  0  0  0  0  0  0  0  0  0  0  0
    2.9631   -1.8700    0.0000 H   0  0  0  0  0  0  0  0  0  0  0  0
    5.7690   -0.2500    0.0000 H   0  0  0  0  0  0  0  0  0  0  0  0
    1.4631   -1.1159    0.0000 H   0  0  0  0  0  0  0  0  0  0  0  0
    2.5370    0.6160    0.0000 H   0  0  0  0  0  0  0  0  0  0  0  0
    1.6900    0.8430    0.0000 H   0  0  0  0  0  0  0  0  0  0  0  0
    1.4631   -0.0040    0.0000 H   0  0  0  0  0  0  0  0  0  0  0  0
    1.6900   -1.9628    0.0000 H   0  0  0  0  0  0  0  0  0  0  0  0
    2.5369   -1.7360    0.0000 H   0  0  0  0  0  0  0  0  0  0  0  0
    4.3661   -2.6800    0.0000 H   0  0  0  0  0  0  0  0  0  0  0  0
    5.7690   -1.8700    0.0000 H   0  0  0  0  0  0  0  0  0  0  0  0
    3.5000    2.0600    0.0000 H   0  0  0  0  0  0  0  0  0  0  0  0
    2.8801    1.4400    0.0000 H   0  0  0  0  0  0  0  0  0  0  0  0
    5.2321    2.0600    0.0000 H   0  0  0  0  0  0  0  0  0  0  0  0
    5.7690    1.1300    0.0000 H   0  0  0  0  0  0  0  0  0  0  0  0
  1  4  1  0  0  0  0
  1  9  1  0  0  0  0
  1 10  1  0  0  0  0
  2  8  2  0  0  0  0
  2 23  1  0  0  0  0
  2 24  1  0  0  0  0
  3  8  1  0  0  0  0
  3 25  1  0  0  0  0
  3 26  1  0  0  0  0
  4  5  1  0  0  0  0
  4  6  2  0  0  0  0
  5  7  2  0  0  0  0
  5  8  1  0  0  0  0
  6 11  1  0  0  0  0
  6 13  1  0  0  0  0
  7 12  1  0  0  0  0
  7 14  1  0  0  0  0
  9 15  1  0  0  0  0
  9 19  1  0  0  0  0
  9 20  1  0  0  0  0
 10 16  1  0  0  0  0
 10 17  1  0  0  0  0
 10 18  1  0  0  0  0
 11 12  2  0  0  0  0
 11 21  1  0  0  0  0
 12 22  1  0  0  0  0
M  CHG  1   2   1
M  END
> <PUBCHEM_COMPOUND_CID>
28601257

> <PUBCHEM_COMPOUND_CANONICALIZED>
1

> <PUBCHEM_CACTVS_COMPLEXITY>
160

> <PUBCHEM_CACTVS_HBOND_ACCEPTOR>
1

> <PUBCHEM_CACTVS_HBOND_DONOR>
2

> <PUBCHEM_CACTVS_ROTATABLE_BOND>
2

> <PUBCHEM_CACTVS_SUBSKEYS>
AAADccBzAAAAAAAAAAAAAAAAAAAAAAAAAAAwAAAAAAAAAAABAAAAHAAQAAAADAiBGAQzwINAAACgAiZiYACCAAChAgAIiAAoZJgIIKLA0ZGEIAhggABIyAcQgAAOAAAAAAACAAAAAAAAAAQAAAAAAAAAAA==

> <PUBCHEM_IUPAC_OPENEYE_NAME>
[amino-[2-(dimethylamino)phenyl]methylene]ammonium

> <PUBCHEM_IUPAC_CAS_NAME>
[amino-[2-(dimethylamino)phenyl]methylidene]ammonium

> <PUBCHEM_IUPAC_NAME>
[amino-[2-(dimethylamino)phenyl]methylidene]azanium

> <PUBCHEM_IUPAC_SYSTEMATIC_NAME>
[azanyl-[2-(dimethylamino)phenyl]methylidene]azanium

> <PUBCHEM_IUPAC_TRADITIONAL_NAME>
[amino-[2-(dimethylamino)phenyl]methylene]ammonium

> <PUBCHEM_IUPAC_INCHI>
InChI=1S/C9H13N3/c1-12(2)8-6-4-3-5-7(8)9(10)11/h3-6H,1-2H3,(H3,10,11)/p+1

> <PUBCHEM_IUPAC_INCHIKEY>
RGTIDHAONYGHFR-UHFFFAOYSA-O

> <PUBCHEM_XLOGP3>
0.5

> <PUBCHEM_EXACT_MASS>
164.118772

> <PUBCHEM_MOLECULAR_FORMULA>
C9H14N3+

> <PUBCHEM_MOLECULAR_WEIGHT>
164.22756

> <PUBCHEM_OPENEYE_CAN_SMILES>
CN(C)C1=CC=CC=C1C(=[NH2+])N

> <PUBCHEM_OPENEYE_ISO_SMILES>
CN(C)C1=CC=CC=C1C(=[NH2+])N

> <PUBCHEM_CACTVS_TPSA>
54.8

> <PUBCHEM_MONOISOTOPIC_WEIGHT>
164.118772

> <PUBCHEM_TOTAL_CHARGE>
1

> <PUBCHEM_HEAVY_ATOM_COUNT>
12

> <PUBCHEM_ATOM_DEF_STEREO_COUNT>
0

> <PUBCHEM_ATOM_UDEF_STEREO_COUNT>
0

> <PUBCHEM_BOND_DEF_STEREO_COUNT>
0

> <PUBCHEM_BOND_UDEF_STEREO_COUNT>
0

> <PUBCHEM_ISOTOPIC_ATOM_COUNT>
0

> <PUBCHEM_COMPONENT_COUNT>
1

> <PUBCHEM_CACTVS_TAUTO_COUNT>
2

> <PUBCHEM_COORDINATE_TYPE>
1
5
255

> <PUBCHEM_BONDANNOTATIONS>
11  12  8
4  5  8
4  6  8
5  7  8
6  11  8
7  12  8

$$$$
