30451898
  -OEChem-11301217422D

 42 43  0     0  0  0  0  0  0999 V2000
    3.3660   -1.6340    0.0000 N   0  3  0  0  0  0  0  0  0  0  0  0
    3.3660    0.3660    0.0000 N   0  0  0  0  0  0  0  0  0  0  0  0
    2.8660   -2.5000    0.0000 C   0  0  0  0  0  0  0  0  0  0  0  0
    2.5000   -1.1340    0.0000 C   0  0  0  0  0  0  0  0  0  0  0  0
    4.2320   -1.1340    0.0000 C   0  0  0  0  0  0  0  0  0  0  0  0
    4.2320   -0.1340    0.0000 C   0  0  0  0  0  0  0  0  0  0  0  0
    2.5000   -0.1340    0.0000 C   0  0  0  0  0  0  0  0  0  0  0  0
    2.3660   -3.3660    0.0000 C   0  0  0  0  0  0  0  0  0  0  0  0
    2.0000   -2.0000    0.0000 C   0  0  0  0  0  0  0  0  0  0  0  0
    3.7320   -3.0000    0.0000 C   0  0  0  0  0  0  0  0  0  0  0  0
    3.3660    1.3660    0.0000 C   0  0  0  0  0  0  0  0  0  0  0  0
    4.2320    1.8660    0.0000 C   0  0  0  0  0  0  0  0  0  0  0  0
    4.2320    2.8660    0.0000 C   0  0  0  0  0  0  0  0  0  0  0  0
    5.0981    1.3660    0.0000 C   0  0  0  0  0  0  0  0  0  0  0  0
    5.0981    3.3660    0.0000 C   0  0  0  0  0  0  0  0  0  0  0  0
    5.9641    1.8660    0.0000 C   0  0  0  0  0  0  0  0  0  0  0  0
    5.9641    2.8660    0.0000 C   0  0  0  0  0  0  0  0  0  0  0  0
    3.6760   -2.1709    0.0000 H   0  0  0  0  0  0  0  0  0  0  0  0
    4.4441   -1.7166    0.0000 H   0  0  0  0  0  0  0  0  0  0  0  0
    4.8426   -1.0263    0.0000 H   0  0  0  0  0  0  0  0  0  0  0  0
    1.8894   -1.0263    0.0000 H   0  0  0  0  0  0  0  0  0  0  0  0
    2.2880   -1.7166    0.0000 H   0  0  0  0  0  0  0  0  0  0  0  0
    4.8426   -0.2416    0.0000 H   0  0  0  0  0  0  0  0  0  0  0  0
    4.4441    0.4486    0.0000 H   0  0  0  0  0  0  0  0  0  0  0  0
    2.2880    0.4486    0.0000 H   0  0  0  0  0  0  0  0  0  0  0  0
    1.8894   -0.2416    0.0000 H   0  0  0  0  0  0  0  0  0  0  0  0
    1.8291   -3.0560    0.0000 H   0  0  0  0  0  0  0  0  0  0  0  0
    3.4220   -3.5369    0.0000 H   0  0  0  0  0  0  0  0  0  0  0  0
    4.2690   -3.3100    0.0000 H   0  0  0  0  0  0  0  0  0  0  0  0
    2.0560   -3.9030    0.0000 H   0  0  0  0  0  0  0  0  0  0  0  0
    2.9030   -3.6760    0.0000 H   0  0  0  0  0  0  0  0  0  0  0  0
    2.3100   -1.4631    0.0000 H   0  0  0  0  0  0  0  0  0  0  0  0
    1.4631   -1.6900    0.0000 H   0  0  0  0  0  0  0  0  0  0  0  0
    1.6900   -2.5369    0.0000 H   0  0  0  0  0  0  0  0  0  0  0  0
    4.0420   -2.4631    0.0000 H   0  0  0  0  0  0  0  0  0  0  0  0
    3.1540    1.9486    0.0000 H   0  0  0  0  0  0  0  0  0  0  0  0
    2.7554    1.2584    0.0000 H   0  0  0  0  0  0  0  0  0  0  0  0
    3.6951    3.1760    0.0000 H   0  0  0  0  0  0  0  0  0  0  0  0
    5.0981    0.7460    0.0000 H   0  0  0  0  0  0  0  0  0  0  0  0
    5.0981    3.9860    0.0000 H   0  0  0  0  0  0  0  0  0  0  0  0
    6.5010    1.5560    0.0000 H   0  0  0  0  0  0  0  0  0  0  0  0
    6.5010    3.1760    0.0000 H   0  0  0  0  0  0  0  0  0  0  0  0
  1  3  1  0  0  0  0
  1  4  1  0  0  0  0
  1  5  1  0  0  0  0
  1 18  1  0  0  0  0
  2  6  1  0  0  0  0
  2  7  1  0  0  0  0
  2 11  1  0  0  0  0
  3  8  1  0  0  0  0
  3  9  1  0  0  0  0
  3 10  1  0  0  0  0
  4  7  1  0  0  0  0
  4 21  1  0  0  0  0
  4 22  1  0  0  0  0
  5  6  1  0  0  0  0
  5 19  1  0  0  0  0
  5 20  1  0  0  0  0
  6 23  1  0  0  0  0
  6 24  1  0  0  0  0
  7 25  1  0  0  0  0
  7 26  1  0  0  0  0
  8 27  1  0  0  0  0
  8 30  1  0  0  0  0
  8 31  1  0  0  0  0
  9 32  1  0  0  0  0
  9 33  1  0  0  0  0
  9 34  1  0  0  0  0
 10 28  1  0  0  0  0
 10 29  1  0  0  0  0
 10 35  1  0  0  0  0
 11 12  1  0  0  0  0
 11 36  1  0  0  0  0
 11 37  1  0  0  0  0
 12 13  2  0  0  0  0
 12 14  1  0  0  0  0
 13 15  1  0  0  0  0
 13 38  1  0  0  0  0
 14 16  2  0  0  0  0
 14 39  1  0  0  0  0
 15 17  2  0  0  0  0
 15 40  1  0  0  0  0
 16 17  1  0  0  0  0
 16 41  1  0  0  0  0
 17 42  1  0  0  0  0
M  CHG  1   1   1
M  END
> <PUBCHEM_COMPOUND_CID>
30451898

> <PUBCHEM_COMPOUND_CANONICALIZED>
1

> <PUBCHEM_CACTVS_COMPLEXITY>
218

> <PUBCHEM_CACTVS_HBOND_ACCEPTOR>
1

> <PUBCHEM_CACTVS_HBOND_DONOR>
1

> <PUBCHEM_CACTVS_ROTATABLE_BOND>
3

> <PUBCHEM_CACTVS_SUBSKEYS>
AAADceBzAAAAAAAAAAAAAAAAAAAAAAAAAAA8QAAAAAAAAAABAAAAHAAQAAAADIjBGAQyAIPAAACAAiBCAACCAAAgAAAIiIAIBIgIYCKAkRGUIAhgkACIiAcQgAAOAAAAAAAAAAAAAAAAAAAAAAAAAAAAAA==

> <PUBCHEM_IUPAC_OPENEYE_NAME>
1-benzyl-4-tert-butyl-piperazin-4-ium

> <PUBCHEM_IUPAC_CAS_NAME>
1-tert-butyl-4-(phenylmethyl)piperazin-1-ium

> <PUBCHEM_IUPAC_NAME>
1-benzyl-4-tert-butylpiperazin-4-ium

> <PUBCHEM_IUPAC_SYSTEMATIC_NAME>
1-tert-butyl-4-(phenylmethyl)piperazin-1-ium

> <PUBCHEM_IUPAC_TRADITIONAL_NAME>
1-benzyl-4-tert-butyl-piperazin-4-ium

> <PUBCHEM_IUPAC_INCHI>
InChI=1S/C15H24N2/c1-15(2,3)17-11-9-16(10-12-17)13-14-7-5-4-6-8-14/h4-8H,9-13H2,1-3H3/p+1

> <PUBCHEM_IUPAC_INCHIKEY>
NGFMWJQBLQMURA-UHFFFAOYSA-O

> <PUBCHEM_XLOGP3>
2.7

> <PUBCHEM_EXACT_MASS>
233.201774

> <PUBCHEM_MOLECULAR_FORMULA>
C15H25N2+

> <PUBCHEM_MOLECULAR_WEIGHT>
233.3724

> <PUBCHEM_OPENEYE_CAN_SMILES>
CC(C)(C)[NH+]1CCN(CC1)CC2=CC=CC=C2

> <PUBCHEM_OPENEYE_ISO_SMILES>
CC(C)(C)[NH+]1CCN(CC1)CC2=CC=CC=C2

> <PUBCHEM_CACTVS_TPSA>
7.7

> <PUBCHEM_MONOISOTOPIC_WEIGHT>
233.201774

> <PUBCHEM_TOTAL_CHARGE>
1

> <PUBCHEM_HEAVY_ATOM_COUNT>
17

> <PUBCHEM_ATOM_DEF_STEREO_COUNT>
0

> <PUBCHEM_ATOM_UDEF_STEREO_COUNT>
0

> <PUBCHEM_BOND_DEF_STEREO_COUNT>
0

> <PUBCHEM_BOND_UDEF_STEREO_COUNT>
0

> <PUBCHEM_ISOTOPIC_ATOM_COUNT>
0

> <PUBCHEM_COMPONENT_COUNT>
1

> <PUBCHEM_CACTVS_TAUTO_COUNT>
1

> <PUBCHEM_COORDINATE_TYPE>
1
5
255

> <PUBCHEM_BONDANNOTATIONS>
12  13  8
12  14  8
13  15  8
14  16  8
15  17  8
16  17  8

$$$$
30469580
  -OEChem-11301217422D

 58 61  0     1  0  0  0  0  0999 V2000
    7.9244   -1.2390    0.0000 O   0  0  0  0  0  0  0  0  0  0  0  0
    7.7726    2.6934    0.0000 N   0  3  3  0  0  0  0  0  0  0  0  0
    7.5673    0.4559    0.0000 N   0  0  0  0  0  0  0  0  0  0  0  0
    4.6783   -4.4176    0.0000 N   0  0  0  0  0  0  0  0  0  0  0  0
    8.7231    2.3828    0.0000 C   0  0  0  0  0  0  0  0  0  0  0  0
    6.9370    2.1440    0.0000 C   0  0  0  0  0  0  0  0  0  0  0  0
    9.0728    1.4459    0.0000 C   0  0  0  0  0  0  0  0  0  0  0  0
    6.8457    1.1482    0.0000 C   0  0  0  0  0  0  0  0  0  0  0  0
    8.5584    0.5884    0.0000 C   0  0  0  0  0  0  0  0  0  0  0  0
    8.0832    3.6440    0.0000 C   0  0  0  0  0  0  0  0  0  0  0  0
    7.2566   -0.4947    0.0000 C   0  0  0  0  0  0  0  0  0  0  0  0
    9.0617    3.8502    0.0000 C   0  0  0  0  0  0  0  0  0  0  0  0
    6.2781   -0.7009    0.0000 C   0  0  0  0  0  0  0  0  0  0  0  0
    5.9674   -1.6514    0.0000 C   0  0  0  0  0  0  0  0  0  0  0  0
    4.9889   -1.8576    0.0000 C   0  0  0  0  0  0  0  0  0  0  0  0
    9.3724    4.8007    0.0000 C   0  0  0  0  0  0  0  0  0  0  0  0
    9.7296    3.1059    0.0000 C   0  0  0  0  0  0  0  0  0  0  0  0
    4.6783   -2.8081    0.0000 C   0  0  0  0  0  0  0  0  0  0  0  0
    3.7320   -3.1129    0.0000 C   0  0  0  0  0  0  0  0  0  0  0  0
   10.3509    5.0069    0.0000 C   0  0  0  0  0  0  0  0  0  0  0  0
   10.7081    3.3121    0.0000 C   0  0  0  0  0  0  0  0  0  0  0  0
    5.2619   -3.6129    0.0000 C   0  0  0  0  0  0  0  0  0  0  0  0
    3.7320   -4.1129    0.0000 C   0  0  0  0  0  0  0  0  0  0  0  0
   11.0187    4.2626    0.0000 C   0  0  0  0  0  0  0  0  0  0  0  0
    2.8660   -2.6129    0.0000 C   0  0  0  0  0  0  0  0  0  0  0  0
    2.8660   -4.6129    0.0000 C   0  0  0  0  0  0  0  0  0  0  0  0
    2.0000   -3.1129    0.0000 C   0  0  0  0  0  0  0  0  0  0  0  0
    2.0000   -4.1129    0.0000 C   0  0  0  0  0  0  0  0  0  0  0  0
    7.4319    3.2115    0.0000 H   0  0  0  0  0  0  0  0  0  0  0  0
    9.3376    2.4649    0.0000 H   0  0  0  0  0  0  0  0  0  0  0  0
    8.7797    3.0002    0.0000 H   0  0  0  0  0  0  0  0  0  0  0  0
    6.7202    2.7248    0.0000 H   0  0  0  0  0  0  0  0  0  0  0  0
    6.3225    2.0618    0.0000 H   0  0  0  0  0  0  0  0  0  0  0  0
    9.5202    1.0167    0.0000 H   0  0  0  0  0  0  0  0  0  0  0  0
    9.5909    1.7866    0.0000 H   0  0  0  0  0  0  0  0  0  0  0  0
    6.2564    1.3408    0.0000 H   0  0  0  0  0  0  0  0  0  0  0  0
    6.5268    0.6165    0.0000 H   0  0  0  0  0  0  0  0  0  0  0  0
    8.5018   -0.0290    0.0000 H   0  0  0  0  0  0  0  0  0  0  0  0
    9.1478    0.3958    0.0000 H   0  0  0  0  0  0  0  0  0  0  0  0
    8.0627    4.2636    0.0000 H   0  0  0  0  0  0  0  0  0  0  0  0
    7.4694    3.7313    0.0000 H   0  0  0  0  0  0  0  0  0  0  0  0
    6.2575   -0.0812    0.0000 H   0  0  0  0  0  0  0  0  0  0  0  0
    5.6643   -0.6135    0.0000 H   0  0  0  0  0  0  0  0  0  0  0  0
    5.9880   -2.2711    0.0000 H   0  0  0  0  0  0  0  0  0  0  0  0
    6.5812   -1.7388    0.0000 H   0  0  0  0  0  0  0  0  0  0  0  0
    4.9684   -1.2380    0.0000 H   0  0  0  0  0  0  0  0  0  0  0  0
    4.3751   -1.7703    0.0000 H   0  0  0  0  0  0  0  0  0  0  0  0
    8.9583    5.2622    0.0000 H   0  0  0  0  0  0  0  0  0  0  0  0
    9.5370    2.5166    0.0000 H   0  0  0  0  0  0  0  0  0  0  0  0
   10.5435    5.5963    0.0000 H   0  0  0  0  0  0  0  0  0  0  0  0
   11.1221    2.8506    0.0000 H   0  0  0  0  0  0  0  0  0  0  0  0
    5.8819   -3.6129    0.0000 H   0  0  0  0  0  0  0  0  0  0  0  0
   11.6254    4.3905    0.0000 H   0  0  0  0  0  0  0  0  0  0  0  0
    4.8709   -5.0069    0.0000 H   0  0  0  0  0  0  0  0  0  0  0  0
    2.8660   -1.9929    0.0000 H   0  0  0  0  0  0  0  0  0  0  0  0
    2.8660   -5.2329    0.0000 H   0  0  0  0  0  0  0  0  0  0  0  0
    1.4631   -2.8029    0.0000 H   0  0  0  0  0  0  0  0  0  0  0  0
    1.4631   -4.4229    0.0000 H   0  0  0  0  0  0  0  0  0  0  0  0
  1 11  2  0  0  0  0
  2  5  1  0  0  0  0
  2  6  1  0  0  0  0
  2 10  1  0  0  0  0
  2 29  1  0  0  0  0
  3  8  1  0  0  0  0
  3  9  1  0  0  0  0
  3 11  1  0  0  0  0
  4 22  1  0  0  0  0
  4 23  1  0  0  0  0
  4 54  1  0  0  0  0
  5  7  1  0  0  0  0
  5 30  1  0  0  0  0
  5 31  1  0  0  0  0
  6  8  1  0  0  0  0
  6 32  1  0  0  0  0
  6 33  1  0  0  0  0
  7  9  1  0  0  0  0
  7 34  1  0  0  0  0
  7 35  1  0  0  0  0
  8 36  1  0  0  0  0
  8 37  1  0  0  0  0
  9 38  1  0  0  0  0
  9 39  1  0  0  0  0
 10 12  1  0  0  0  0
 10 40  1  0  0  0  0
 10 41  1  0  0  0  0
 11 13  1  0  0  0  0
 12 16  2  0  0  0  0
 12 17  1  0  0  0  0
 13 14  1  0  0  0  0
 13 42  1  0  0  0  0
 13 43  1  0  0  0  0
 14 15  1  0  0  0  0
 14 44  1  0  0  0  0
 14 45  1  0  0  0  0
 15 18  1  0  0  0  0
 15 46  1  0  0  0  0
 15 47  1  0  0  0  0
 16 20  1  0  0  0  0
 16 48  1  0  0  0  0
 17 21  2  0  0  0  0
 17 49  1  0  0  0  0
 18 19  1  0  0  0  0
 18 22  2  0  0  0  0
 19 23  1  0  0  0  0
 19 25  2  0  0  0  0
 20 24  2  0  0  0  0
 20 50  1  0  0  0  0
 21 24  1  0  0  0  0
 21 51  1  0  0  0  0
 22 52  1  0  0  0  0
 23 26  2  0  0  0  0
 24 53  1  0  0  0  0
 25 27  1  0  0  0  0
 25 55  1  0  0  0  0
 26 28  1  0  0  0  0
 26 56  1  0  0  0  0
 27 28  2  0  0  0  0
 27 57  1  0  0  0  0
 28 58  1  0  0  0  0
M  CHG  1   2   1
M  END
> <PUBCHEM_COMPOUND_CID>
30469580

> <PUBCHEM_COMPOUND_CANONICALIZED>
1

> <PUBCHEM_CACTVS_COMPLEXITY>
490

> <PUBCHEM_CACTVS_HBOND_ACCEPTOR>
1

> <PUBCHEM_CACTVS_HBOND_DONOR>
2

> <PUBCHEM_CACTVS_ROTATABLE_BOND>
6

> <PUBCHEM_CACTVS_SUBSKEYS>
AAADceB7IAAAAAAAAAAAAAAAAAAAAWAAAAAwYAAABYAAAFgB9AAAHgAQAAAADAjBngQ8wPPJkACoAzV3VACCgCAxAiAI2aE4ZJgIYPLA0ZGUIAhglgDIyAcYiMCOgAAAAAACAAAAAAAAAAQAAAAAAAAAAA==

> <PUBCHEM_IUPAC_OPENEYE_NAME>
1-(4-benzyl-1,4-diazepan-4-ium-1-yl)-4-(1H-indol-3-yl)butan-1-one

> <PUBCHEM_IUPAC_CAS_NAME>
4-(1H-indol-3-yl)-1-[4-(phenylmethyl)-1,4-diazepan-4-ium-1-yl]-1-butanone

> <PUBCHEM_IUPAC_NAME>
1-(4-benzyl-1,4-diazepan-4-ium-1-yl)-4-(1H-indol-3-yl)butan-1-one

> <PUBCHEM_IUPAC_SYSTEMATIC_NAME>
4-(1H-indol-3-yl)-1-[4-(phenylmethyl)-1,4-diazepan-4-ium-1-yl]butan-1-one

> <PUBCHEM_IUPAC_TRADITIONAL_NAME>
1-(4-benzyl-1,4-diazepan-4-ium-1-yl)-4-(1H-indol-3-yl)butan-1-one

> <PUBCHEM_IUPAC_INCHI>
InChI=1S/C24H29N3O/c28-24(13-6-10-21-18-25-23-12-5-4-11-22(21)23)27-15-7-14-26(16-17-27)19-20-8-2-1-3-9-20/h1-5,8-9,11-12,18,25H,6-7,10,13-17,19H2/p+1

> <PUBCHEM_IUPAC_INCHIKEY>
SZHBPHBODITBIX-UHFFFAOYSA-O

> <PUBCHEM_XLOGP3>
3.9

> <PUBCHEM_EXACT_MASS>
376.238888

> <PUBCHEM_MOLECULAR_FORMULA>
C24H30N3O+

> <PUBCHEM_MOLECULAR_WEIGHT>
376.5145

> <PUBCHEM_OPENEYE_CAN_SMILES>
C1C[NH+](CCN(C1)C(=O)CCCC2=CNC3=CC=CC=C32)CC4=CC=CC=C4

> <PUBCHEM_OPENEYE_ISO_SMILES>
C1C[NH+](CCN(C1)C(=O)CCCC2=CNC3=CC=CC=C32)CC4=CC=CC=C4

> <PUBCHEM_CACTVS_TPSA>
40.5

> <PUBCHEM_MONOISOTOPIC_WEIGHT>
376.238888

> <PUBCHEM_TOTAL_CHARGE>
1

> <PUBCHEM_HEAVY_ATOM_COUNT>
28

> <PUBCHEM_ATOM_DEF_STEREO_COUNT>
0

> <PUBCHEM_ATOM_UDEF_STEREO_COUNT>
0

> <PUBCHEM_BOND_DEF_STEREO_COUNT>
0

> <PUBCHEM_BOND_UDEF_STEREO_COUNT>
0

> <PUBCHEM_ISOTOPIC_ATOM_COUNT>
0

> <PUBCHEM_COMPONENT_COUNT>
1

> <PUBCHEM_CACTVS_TAUTO_COUNT>
1

> <PUBCHEM_COORDINATE_TYPE>
1
5
255

> <PUBCHEM_BONDANNOTATIONS>
12  16  8
12  17  8
16  20  8
17  21  8
18  19  8
18  22  8
19  23  8
19  25  8
20  24  8
21  24  8
23  26  8
25  27  8
26  28  8
27  28  8
4  22  8
4  23  8

$$$$
