17353479
  -OEChem-05231304462D

 58 60  0     0  0  0  0  0  0999 V2000
   13.2583   -1.1900    0.0000 S   0  0  0  0  0  0  0  0  0  0  0  0
   12.7583   -2.0560    0.0000 O   0  0  0  0  0  0  0  0  0  0  0  0
   13.7583   -0.3240    0.0000 O   0  0  0  0  0  0  0  0  0  0  0  0
    5.4641    2.3100    0.0000 O   0  0  0  0  0  0  0  0  0  0  0  0
    8.9282   -0.6900    0.0000 O   0  0  0  0  0  0  0  0  0  0  0  0
    2.8660    1.8100    0.0000 O   0  0  0  0  0  0  0  0  0  0  0  0
   15.8564    1.3100    0.0000 O   0  0  0  0  0  0  0  0  0  0  0  0
   17.5885   -1.6900    0.0000 O   0  0  0  0  0  0  0  0  0  0  0  0
   14.1244   -1.6900    0.0000 N   0  0  0  0  0  0  0  0  0  0  0  0
    9.7942    0.8100    0.0000 N   0  0  0  0  0  0  0  0  0  0  0  0
   15.8564   -1.6900    0.0000 N   0  0  0  0  0  0  0  0  0  0  0  0
   16.7224   -0.1900    0.0000 N   0  0  0  0  0  0  0  0  0  0  0  0
   12.3923   -0.6900    0.0000 C   0  0  0  0  0  0  0  0  0  0  0  0
   10.6603    0.3100    0.0000 C   0  0  0  0  0  0  0  0  0  0  0  0
   12.3923    0.3100    0.0000 C   0  0  0  0  0  0  0  0  0  0  0  0
   11.5263   -1.1900    0.0000 C   0  0  0  0  0  0  0  0  0  0  0  0
   11.5263    0.8100    0.0000 C   0  0  0  0  0  0  0  0  0  0  0  0
   10.6603   -0.6900    0.0000 C   0  0  0  0  0  0  0  0  0  0  0  0
    8.0622    0.8100    0.0000 C   0  0  0  0  0  0  0  0  0  0  0  0
    8.9282    0.3100    0.0000 C   0  0  0  0  0  0  0  0  0  0  0  0
   14.9904   -1.1900    0.0000 C   0  0  0  0  0  0  0  0  0  0  0  0
    8.0622    1.8100    0.0000 C   0  0  0  0  0  0  0  0  0  0  0  0
    7.1962    0.3100    0.0000 C   0  0  0  0  0  0  0  0  0  0  0  0
    6.3301    1.8100    0.0000 C   0  0  0  0  0  0  0  0  0  0  0  0
    7.1962    2.3100    0.0000 C   0  0  0  0  0  0  0  0  0  0  0  0
    6.3301    0.8100    0.0000 C   0  0  0  0  0  0  0  0  0  0  0  0
   14.9904   -0.1900    0.0000 C   0  0  0  0  0  0  0  0  0  0  0  0
    4.5981    1.8100    0.0000 C   0  0  0  0  0  0  0  0  0  0  0  0
   15.8564    0.3100    0.0000 C   0  0  0  0  0  0  0  0  0  0  0  0
    3.7320    2.3100    0.0000 C   0  0  0  0  0  0  0  0  0  0  0  0
   16.7224   -1.1900    0.0000 C   0  0  0  0  0  0  0  0  0  0  0  0
    2.0000    2.3100    0.0000 C   0  0  0  0  0  0  0  0  0  0  0  0
   16.7224    1.8100    0.0000 C   0  0  0  0  0  0  0  0  0  0  0  0
   18.4545   -1.1900    0.0000 C   0  0  0  0  0  0  0  0  0  0  0  0
   12.9292    0.6200    0.0000 H   0  0  0  0  0  0  0  0  0  0  0  0
   11.5263   -1.8100    0.0000 H   0  0  0  0  0  0  0  0  0  0  0  0
   11.5263    1.4300    0.0000 H   0  0  0  0  0  0  0  0  0  0  0  0
   10.1233   -1.0000    0.0000 H   0  0  0  0  0  0  0  0  0  0  0  0
   14.1244   -2.3100    0.0000 H   0  0  0  0  0  0  0  0  0  0  0  0
    9.7942    1.4300    0.0000 H   0  0  0  0  0  0  0  0  0  0  0  0
    8.5991    2.1200    0.0000 H   0  0  0  0  0  0  0  0  0  0  0  0
    7.1962   -0.3100    0.0000 H   0  0  0  0  0  0  0  0  0  0  0  0
    7.1962    2.9300    0.0000 H   0  0  0  0  0  0  0  0  0  0  0  0
    5.7932    0.5000    0.0000 H   0  0  0  0  0  0  0  0  0  0  0  0
   14.4534    0.1200    0.0000 H   0  0  0  0  0  0  0  0  0  0  0  0
    4.1996    1.3350    0.0000 H   0  0  0  0  0  0  0  0  0  0  0  0
    4.9966    1.3350    0.0000 H   0  0  0  0  0  0  0  0  0  0  0  0
    4.1306    2.7849    0.0000 H   0  0  0  0  0  0  0  0  0  0  0  0
    3.3335    2.7849    0.0000 H   0  0  0  0  0  0  0  0  0  0  0  0
    2.3100    2.8469    0.0000 H   0  0  0  0  0  0  0  0  0  0  0  0
    1.4631    2.6200    0.0000 H   0  0  0  0  0  0  0  0  0  0  0  0
    1.6900    1.7731    0.0000 H   0  0  0  0  0  0  0  0  0  0  0  0
   17.0324    1.2731    0.0000 H   0  0  0  0  0  0  0  0  0  0  0  0
   17.2594    2.1200    0.0000 H   0  0  0  0  0  0  0  0  0  0  0  0
   16.4124    2.3469    0.0000 H   0  0  0  0  0  0  0  0  0  0  0  0
   18.7645   -1.7269    0.0000 H   0  0  0  0  0  0  0  0  0  0  0  0
   18.9914   -0.8800    0.0000 H   0  0  0  0  0  0  0  0  0  0  0  0
   18.1445   -0.6531    0.0000 H   0  0  0  0  0  0  0  0  0  0  0  0
  1  2  2  0  0  0  0
  1  3  2  0  0  0  0
  1  9  1  0  0  0  0
  1 13  1  0  0  0  0
  4 24  1  0  0  0  0
  4 28  1  0  0  0  0
  5 20  2  0  0  0  0
  6 30  1  0  0  0  0
  6 32  1  0  0  0  0
  7 29  1  0  0  0  0
  7 33  1  0  0  0  0
  8 31  1  0  0  0  0
  8 34  1  0  0  0  0
  9 21  1  0  0  0  0
  9 39  1  0  0  0  0
 10 14  1  0  0  0  0
 10 20  1  0  0  0  0
 10 40  1  0  0  0  0
 11 21  1  0  0  0  0
 11 31  2  0  0  0  0
 12 29  2  0  0  0  0
 12 31  1  0  0  0  0
 13 15  2  0  0  0  0
 13 16  1  0  0  0  0
 14 17  2  0  0  0  0
 14 18  1  0  0  0  0
 15 17  1  0  0  0  0
 15 35  1  0  0  0  0
 16 18  2  0  0  0  0
 16 36  1  0  0  0  0
 17 37  1  0  0  0  0
 18 38  1  0  0  0  0
 19 20  1  0  0  0  0
 19 22  2  0  0  0  0
 19 23  1  0  0  0  0
 21 27  2  0  0  0  0
 22 25  1  0  0  0  0
 22 41  1  0  0  0  0
 23 26  2  0  0  0  0
 23 42  1  0  0  0  0
 24 25  2  0  0  0  0
 24 26  1  0  0  0  0
 25 43  1  0  0  0  0
 26 44  1  0  0  0  0
 27 29  1  0  0  0  0
 27 45  1  0  0  0  0
 28 30  1  0  0  0  0
 28 46  1  0  0  0  0
 28 47  1  0  0  0  0
 30 48  1  0  0  0  0
 30 49  1  0  0  0  0
 32 50  1  0  0  0  0
 32 51  1  0  0  0  0
 32 52  1  0  0  0  0
 33 53  1  0  0  0  0
 33 54  1  0  0  0  0
 33 55  1  0  0  0  0
 34 56  1  0  0  0  0
 34 57  1  0  0  0  0
 34 58  1  0  0  0  0
M  END
> <PUBCHEM_COMPOUND_CID>
17353479

> <PUBCHEM_COMPOUND_CANONICALIZED>
1

> <PUBCHEM_CACTVS_COMPLEXITY>
719

> <PUBCHEM_CACTVS_HBOND_ACCEPTOR>
10

> <PUBCHEM_CACTVS_HBOND_DONOR>
2

> <PUBCHEM_CACTVS_ROTATABLE_BOND>
11

> <PUBCHEM_CACTVS_SUBSKEYS>
AAADceB7uABAAAAAAAAAAAAAAAAAAAAAAAA8YIAAAAAAAAAB0AAAHgQQQAAADAyh2gIz95bIFAKoAidydHDCiDklIqAJmDk2bNiNLjLE/duGPSju1BvK6aeY3ALOIAQAAAAAAABACAAAAAAAAAAAAAAAAA==

> <PUBCHEM_IUPAC_OPENEYE_NAME>
N-[4-[(2,6-dimethoxypyrimidin-4-yl)sulfamoyl]phenyl]-4-(2-methoxyethoxy)benzamide

> <PUBCHEM_IUPAC_CAS_NAME>
N-[4-[(2,6-dimethoxy-4-pyrimidinyl)sulfamoyl]phenyl]-4-(2-methoxyethoxy)benzamide

> <PUBCHEM_IUPAC_NAME>
N-[4-[(2,6-dimethoxypyrimidin-4-yl)sulfamoyl]phenyl]-4-(2-methoxyethoxy)benzamide

> <PUBCHEM_IUPAC_SYSTEMATIC_NAME>
N-[4-[(2,6-dimethoxypyrimidin-4-yl)sulfamoyl]phenyl]-4-(2-methoxyethoxy)benzamide

> <PUBCHEM_IUPAC_TRADITIONAL_NAME>
N-[4-[(2,6-dimethoxypyrimidin-4-yl)sulfamoyl]phenyl]-4-(2-methoxyethoxy)benzamide

> <PUBCHEM_IUPAC_INCHI>
InChI=1S/C22H24N4O7S/c1-30-12-13-33-17-8-4-15(5-9-17)21(27)23-16-6-10-18(11-7-16)34(28,29)26-19-14-20(31-2)25-22(24-19)32-3/h4-11,14H,12-13H2,1-3H3,(H,23,27)(H,24,25,26)

> <PUBCHEM_IUPAC_INCHIKEY>
WJPFPJPGXCAHQP-UHFFFAOYSA-N

> <PUBCHEM_XLOGP3>
3

> <PUBCHEM_EXACT_MASS>
488.13657

> <PUBCHEM_MOLECULAR_FORMULA>
C22H24N4O7S

> <PUBCHEM_MOLECULAR_WEIGHT>
488.51356

> <PUBCHEM_OPENEYE_CAN_SMILES>
COCCOC1=CC=C(C=C1)C(=O)NC2=CC=C(C=C2)S(=O)(=O)NC3=CC(=NC(=N3)OC)OC

> <PUBCHEM_OPENEYE_ISO_SMILES>
COCCOC1=CC=C(C=C1)C(=O)NC2=CC=C(C=C2)S(=O)(=O)NC3=CC(=NC(=N3)OC)OC

> <PUBCHEM_CACTVS_TPSA>
146

> <PUBCHEM_MONOISOTOPIC_WEIGHT>
488.13657

> <PUBCHEM_TOTAL_CHARGE>
0

> <PUBCHEM_HEAVY_ATOM_COUNT>
34

> <PUBCHEM_ATOM_DEF_STEREO_COUNT>
0

> <PUBCHEM_ATOM_UDEF_STEREO_COUNT>
0

> <PUBCHEM_BOND_DEF_STEREO_COUNT>
0

> <PUBCHEM_BOND_UDEF_STEREO_COUNT>
0

> <PUBCHEM_ISOTOPIC_ATOM_COUNT>
0

> <PUBCHEM_COMPONENT_COUNT>
1

> <PUBCHEM_CACTVS_TAUTO_COUNT>
6

> <PUBCHEM_COORDINATE_TYPE>
1
5
255

> <PUBCHEM_BONDANNOTATIONS>
11  21  8
11  31  8
12  29  8
12  31  8
13  15  8
13  16  8
14  17  8
14  18  8
15  17  8
16  18  8
19  22  8
19  23  8
21  27  8
22  25  8
23  26  8
24  25  8
24  26  8
27  29  8

$$$$
17365774
  -OEChem-05231304462D

 32 33  0     0  0  0  0  0  0999 V2000
    2.0000   -2.0000    0.0000 Cl  0  0  0  0  0  0  0  0  0  0  0  0
    2.0000   -4.0000    0.0000 Cl  0  0  0  0  0  0  0  0  0  0  0  0
    5.4641   -1.0000    0.0000 O   0  0  0  0  0  0  0  0  0  0  0  0
    3.7320   -1.0000    0.0000 N   0  0  0  0  0  0  0  0  0  0  0  0
    4.5981    2.5000    0.0000 C   0  0  0  0  0  0  0  0  0  0  0  0
    4.5981    3.5000    0.0000 C   0  0  0  0  0  0  0  0  0  0  0  0
    4.5981    0.5000    0.0000 C   0  0  0  0  0  0  0  0  0  0  0  0
    3.7320    2.0000    0.0000 C   0  0  0  0  0  0  0  0  0  0  0  0
    5.4641    2.0000    0.0000 C   0  0  0  0  0  0  0  0  0  0  0  0
    3.7320    1.0000    0.0000 C   0  0  0  0  0  0  0  0  0  0  0  0
    5.4641    1.0000    0.0000 C   0  0  0  0  0  0  0  0  0  0  0  0
    4.5981   -0.5000    0.0000 C   0  0  0  0  0  0  0  0  0  0  0  0
    3.7320   -2.0000    0.0000 C   0  0  0  0  0  0  0  0  0  0  0  0
    5.4641    4.0000    0.0000 C   0  0  0  0  0  0  0  0  0  0  0  0
    2.8660   -2.5000    0.0000 C   0  0  0  0  0  0  0  0  0  0  0  0
    4.5981   -2.5000    0.0000 C   0  0  0  0  0  0  0  0  0  0  0  0
    2.8660   -3.5000    0.0000 C   0  0  0  0  0  0  0  0  0  0  0  0
    4.5981   -3.5000    0.0000 C   0  0  0  0  0  0  0  0  0  0  0  0
    3.7320   -4.0000    0.0000 C   0  0  0  0  0  0  0  0  0  0  0  0
    4.3860    4.0826    0.0000 H   0  0  0  0  0  0  0  0  0  0  0  0
    3.9875    3.3923    0.0000 H   0  0  0  0  0  0  0  0  0  0  0  0
    3.1951    2.3100    0.0000 H   0  0  0  0  0  0  0  0  0  0  0  0
    6.0010    2.3100    0.0000 H   0  0  0  0  0  0  0  0  0  0  0  0
    3.1951    0.6900    0.0000 H   0  0  0  0  0  0  0  0  0  0  0  0
    6.0010    0.6900    0.0000 H   0  0  0  0  0  0  0  0  0  0  0  0
    5.7741    3.4631    0.0000 H   0  0  0  0  0  0  0  0  0  0  0  0
    6.0010    4.3100    0.0000 H   0  0  0  0  0  0  0  0  0  0  0  0
    5.1541    4.5369    0.0000 H   0  0  0  0  0  0  0  0  0  0  0  0
    3.1951   -0.6900    0.0000 H   0  0  0  0  0  0  0  0  0  0  0  0
    5.1350   -2.1900    0.0000 H   0  0  0  0  0  0  0  0  0  0  0  0
    5.1350   -3.8100    0.0000 H   0  0  0  0  0  0  0  0  0  0  0  0
    3.7320   -4.6200    0.0000 H   0  0  0  0  0  0  0  0  0  0  0  0
  1 15  1  0  0  0  0
  2 17  1  0  0  0  0
  3 12  2  0  0  0  0
  4 12  1  0  0  0  0
  4 13  1  0  0  0  0
  4 29  1  0  0  0  0
  5  6  1  0  0  0  0
  5  8  2  0  0  0  0
  5  9  1  0  0  0  0
  6 14  1  0  0  0  0
  6 20  1  0  0  0  0
  6 21  1  0  0  0  0
  7 10  2  0  0  0  0
  7 11  1  0  0  0  0
  7 12  1  0  0  0  0
  8 10  1  0  0  0  0
  8 22  1  0  0  0  0
  9 11  2  0  0  0  0
  9 23  1  0  0  0  0
 10 24  1  0  0  0  0
 11 25  1  0  0  0  0
 13 15  2  0  0  0  0
 13 16  1  0  0  0  0
 14 26  1  0  0  0  0
 14 27  1  0  0  0  0
 14 28  1  0  0  0  0
 15 17  1  0  0  0  0
 16 18  2  0  0  0  0
 16 30  1  0  0  0  0
 17 19  2  0  0  0  0
 18 19  1  0  0  0  0
 18 31  1  0  0  0  0
 19 32  1  0  0  0  0
M  END
> <PUBCHEM_COMPOUND_CID>
17365774

> <PUBCHEM_COMPOUND_CANONICALIZED>
1

> <PUBCHEM_CACTVS_COMPLEXITY>
303

> <PUBCHEM_CACTVS_HBOND_ACCEPTOR>
1

> <PUBCHEM_CACTVS_HBOND_DONOR>
1

> <PUBCHEM_CACTVS_ROTATABLE_BOND>
3

> <PUBCHEM_CACTVS_SUBSKEYS>
AAADccByIAAGAAAAAAAAAAAAAAAAAAAAAAAwYAAAAAAAAAABQAAAHgIQAAAADAqBmCAywILAAACIAiVSUACCAAAlBwAIikEAZsgIIDLBl5HEIQhglADIyYcYiMCOQAAAAAIAABSAAAAABAAAKAAAAAAAAA==

> <PUBCHEM_IUPAC_OPENEYE_NAME>
N-(2,3-dichlorophenyl)-4-ethyl-benzamide

> <PUBCHEM_IUPAC_CAS_NAME>
N-(2,3-dichlorophenyl)-4-ethylbenzamide

> <PUBCHEM_IUPAC_NAME>
N-(2,3-dichlorophenyl)-4-ethylbenzamide

> <PUBCHEM_IUPAC_SYSTEMATIC_NAME>
N-[2,3-bis(chloranyl)phenyl]-4-ethyl-benzamide

> <PUBCHEM_IUPAC_TRADITIONAL_NAME>
N-(2,3-dichlorophenyl)-4-ethyl-benzamide

> <PUBCHEM_IUPAC_INCHI>
InChI=1S/C15H13Cl2NO/c1-2-10-6-8-11(9-7-10)15(19)18-13-5-3-4-12(16)14(13)17/h3-9H,2H2,1H3,(H,18,19)

> <PUBCHEM_IUPAC_INCHIKEY>
WCYKJDZFJMDECW-UHFFFAOYSA-N

> <PUBCHEM_XLOGP3>
4.5

> <PUBCHEM_EXACT_MASS>
293.037419

> <PUBCHEM_MOLECULAR_FORMULA>
C15H13Cl2NO

> <PUBCHEM_MOLECULAR_WEIGHT>
294.17582

> <PUBCHEM_OPENEYE_CAN_SMILES>
CCC1=CC=C(C=C1)C(=O)NC2=C(C(=CC=C2)Cl)Cl

> <PUBCHEM_OPENEYE_ISO_SMILES>
CCC1=CC=C(C=C1)C(=O)NC2=C(C(=CC=C2)Cl)Cl

> <PUBCHEM_CACTVS_TPSA>
29.1

> <PUBCHEM_MONOISOTOPIC_WEIGHT>
293.037419

> <PUBCHEM_TOTAL_CHARGE>
0

> <PUBCHEM_HEAVY_ATOM_COUNT>
19

> <PUBCHEM_ATOM_DEF_STEREO_COUNT>
0

> <PUBCHEM_ATOM_UDEF_STEREO_COUNT>
0

> <PUBCHEM_BOND_DEF_STEREO_COUNT>
0

> <PUBCHEM_BOND_UDEF_STEREO_COUNT>
0

> <PUBCHEM_ISOTOPIC_ATOM_COUNT>
0

> <PUBCHEM_COMPONENT_COUNT>
1

> <PUBCHEM_CACTVS_TAUTO_COUNT>
5

> <PUBCHEM_COORDINATE_TYPE>
1
5
255

> <PUBCHEM_BONDANNOTATIONS>
13  15  8
13  16  8
15  17  8
16  18  8
17  19  8
18  19  8
5  8  8
5  9  8
7  10  8
7  11  8
8  10  8
9  11  8

$$$$
17369849
  -OEChem-05231304472D

 45 46  0     1  0  0  0  0  0999 V2000
    4.5981   -0.5000    0.0000 O   0  0  0  0  0  0  0  0  0  0  0  0
    5.4641    1.0000    0.0000 N   0  0  0  0  0  0  0  0  0  0  0  0
    6.3301    0.5000    0.0000 C   0  0  3  0  0  0  0  0  0  0  0  0
    7.1962    1.0000    0.0000 C   0  0  0  0  0  0  0  0  0  0  0  0
    8.0622    0.5000    0.0000 C   0  0  0  0  0  0  0  0  0  0  0  0
    6.3301   -0.5000    0.0000 C   0  0  0  0  0  0  0  0  0  0  0  0
    8.9282    1.0000    0.0000 C   0  0  0  0  0  0  0  0  0  0  0  0
    4.5981    0.5000    0.0000 C   0  0  0  0  0  0  0  0  0  0  0  0
    9.7942    0.5000    0.0000 C   0  0  0  0  0  0  0  0  0  0  0  0
    8.9282    2.0000    0.0000 C   0  0  0  0  0  0  0  0  0  0  0  0
    3.7320    1.0000    0.0000 C   0  0  0  0  0  0  0  0  0  0  0  0
   10.6603    1.0000    0.0000 C   0  0  0  0  0  0  0  0  0  0  0  0
    9.7942    2.5000    0.0000 C   0  0  0  0  0  0  0  0  0  0  0  0
    2.8660    0.5000    0.0000 C   0  0  0  0  0  0  0  0  0  0  0  0
   10.6603    2.0000    0.0000 C   0  0  0  0  0  0  0  0  0  0  0  0
    3.7320    2.0000    0.0000 C   0  0  0  0  0  0  0  0  0  0  0  0
    2.8660   -0.5000    0.0000 C   0  0  0  0  0  0  0  0  0  0  0  0
    2.0000   -1.0000    0.0000 C   0  0  0  0  0  0  0  0  0  0  0  0
    3.7320   -1.0000    0.0000 C   0  0  0  0  0  0  0  0  0  0  0  0
    2.0000   -2.0000    0.0000 C   0  0  0  0  0  0  0  0  0  0  0  0
    3.7320   -2.0000    0.0000 C   0  0  0  0  0  0  0  0  0  0  0  0
    2.8660   -2.5000    0.0000 C   0  0  0  0  0  0  0  0  0  0  0  0
    5.7932    0.1900    0.0000 H   0  0  0  0  0  0  0  0  0  0  0  0
    7.5947    1.4750    0.0000 H   0  0  0  0  0  0  0  0  0  0  0  0
    6.7976    1.4750    0.0000 H   0  0  0  0  0  0  0  0  0  0  0  0
    7.6636    0.0251    0.0000 H   0  0  0  0  0  0  0  0  0  0  0  0
    8.4607    0.0251    0.0000 H   0  0  0  0  0  0  0  0  0  0  0  0
    5.7101   -0.5000    0.0000 H   0  0  0  0  0  0  0  0  0  0  0  0
    6.3301   -1.1200    0.0000 H   0  0  0  0  0  0  0  0  0  0  0  0
    6.9501   -0.5000    0.0000 H   0  0  0  0  0  0  0  0  0  0  0  0
    5.4641    1.6200    0.0000 H   0  0  0  0  0  0  0  0  0  0  0  0
    9.7942   -0.1200    0.0000 H   0  0  0  0  0  0  0  0  0  0  0  0
    8.3913    2.3100    0.0000 H   0  0  0  0  0  0  0  0  0  0  0  0
   11.1972    0.6900    0.0000 H   0  0  0  0  0  0  0  0  0  0  0  0
    9.7942    3.1200    0.0000 H   0  0  0  0  0  0  0  0  0  0  0  0
    2.3291    0.8100    0.0000 H   0  0  0  0  0  0  0  0  0  0  0  0
   11.1972    2.3100    0.0000 H   0  0  0  0  0  0  0  0  0  0  0  0
    4.3520    2.0000    0.0000 H   0  0  0  0  0  0  0  0  0  0  0  0
    3.7320    2.6200    0.0000 H   0  0  0  0  0  0  0  0  0  0  0  0
    3.1120    2.0000    0.0000 H   0  0  0  0  0  0  0  0  0  0  0  0
    1.4631   -0.6900    0.0000 H   0  0  0  0  0  0  0  0  0  0  0  0
    4.2690   -0.6900    0.0000 H   0  0  0  0  0  0  0  0  0  0  0  0
    1.4631   -2.3100    0.0000 H   0  0  0  0  0  0  0  0  0  0  0  0
    4.2690   -2.3100    0.0000 H   0  0  0  0  0  0  0  0  0  0  0  0
    2.8660   -3.1200    0.0000 H   0  0  0  0  0  0  0  0  0  0  0  0
  1  8  2  0  0  0  0
  2  3  1  0  0  0  0
  2  8  1  0  0  0  0
  2 31  1  0  0  0  0
  3  4  1  0  0  0  0
  3  6  1  0  0  0  0
  3 23  1  0  0  0  0
  4  5  1  0  0  0  0
  4 24  1  0  0  0  0
  4 25  1  0  0  0  0
  5  7  1  0  0  0  0
  5 26  1  0  0  0  0
  5 27  1  0  0  0  0
  6 28  1  0  0  0  0
  6 29  1  0  0  0  0
  6 30  1  0  0  0  0
  7  9  2  0  0  0  0
  7 10  1  0  0  0  0
  8 11  1  0  0  0  0
  9 12  1  0  0  0  0
  9 32  1  0  0  0  0
 10 13  2  0  0  0  0
 10 33  1  0  0  0  0
 11 14  2  0  0  0  0
 11 16  1  0  0  0  0
 12 15  2  0  0  0  0
 12 34  1  0  0  0  0
 13 15  1  0  0  0  0
 13 35  1  0  0  0  0
 14 17  1  0  0  0  0
 14 36  1  0  0  0  0
 15 37  1  0  0  0  0
 16 38  1  0  0  0  0
 16 39  1  0  0  0  0
 16 40  1  0  0  0  0
 17 18  2  0  0  0  0
 17 19  1  0  0  0  0
 18 20  1  0  0  0  0
 18 41  1  0  0  0  0
 19 21  2  0  0  0  0
 19 42  1  0  0  0  0
 20 22  2  0  0  0  0
 20 43  1  0  0  0  0
 21 22  1  0  0  0  0
 21 44  1  0  0  0  0
 22 45  1  0  0  0  0
M  END
> <PUBCHEM_COMPOUND_CID>
17369849

> <PUBCHEM_COMPOUND_CANONICALIZED>
1

> <PUBCHEM_CACTVS_COMPLEXITY>
362

> <PUBCHEM_CACTVS_HBOND_ACCEPTOR>
1

> <PUBCHEM_CACTVS_HBOND_DONOR>
1

> <PUBCHEM_CACTVS_ROTATABLE_BOND>
6

> <PUBCHEM_CACTVS_SUBSKEYS>
AAADceB6IAAAAAAAAAAAAAAAAAAAAAAAAAAwYAAAAAAAAAABQAAAHgAQAAAADCjBmAQyAILAAACIAiFSEACCAAAgAAAIiIEIAMgIICKAkRCEIAAglgCIiYcQgIAOAAAAAAAAAAAAAAAAAAAAAAAAAAAAAA==

> <PUBCHEM_IUPAC_OPENEYE_NAME>
(Z)-2-methyl-N-(1-methyl-3-phenyl-propyl)-3-phenyl-prop-2-enamide

> <PUBCHEM_IUPAC_CAS_NAME>
(Z)-2-methyl-3-phenyl-N-(4-phenylbutan-2-yl)-2-propenamide

> <PUBCHEM_IUPAC_NAME>
(Z)-2-methyl-3-phenyl-N-(4-phenylbutan-2-yl)prop-2-enamide

> <PUBCHEM_IUPAC_SYSTEMATIC_NAME>
(Z)-2-methyl-3-phenyl-N-(4-phenylbutan-2-yl)prop-2-enamide

> <PUBCHEM_IUPAC_TRADITIONAL_NAME>
(Z)-2-methyl-N-(1-methyl-3-phenyl-propyl)-3-phenyl-acrylamide

> <PUBCHEM_IUPAC_INCHI>
InChI=1S/C20H23NO/c1-16(15-19-11-7-4-8-12-19)20(22)21-17(2)13-14-18-9-5-3-6-10-18/h3-12,15,17H,13-14H2,1-2H3,(H,21,22)/b16-15-

> <PUBCHEM_IUPAC_INCHIKEY>
DCSPZZNZJVDEDP-NXVVXOECSA-N

> <PUBCHEM_XLOGP3>
4.3

> <PUBCHEM_EXACT_MASS>
293.177964

> <PUBCHEM_MOLECULAR_FORMULA>
C20H23NO

> <PUBCHEM_MOLECULAR_WEIGHT>
293.40272

> <PUBCHEM_OPENEYE_CAN_SMILES>
CC(CCC1=CC=CC=C1)NC(=O)C(=CC2=CC=CC=C2)C

> <PUBCHEM_OPENEYE_ISO_SMILES>
CC(CCC1=CC=CC=C1)NC(=O)/C(=C\C2=CC=CC=C2)/C

> <PUBCHEM_CACTVS_TPSA>
29.1

> <PUBCHEM_MONOISOTOPIC_WEIGHT>
293.177964

> <PUBCHEM_TOTAL_CHARGE>
0

> <PUBCHEM_HEAVY_ATOM_COUNT>
22

> <PUBCHEM_ATOM_DEF_STEREO_COUNT>
0

> <PUBCHEM_ATOM_UDEF_STEREO_COUNT>
1

> <PUBCHEM_BOND_DEF_STEREO_COUNT>
1

> <PUBCHEM_BOND_UDEF_STEREO_COUNT>
0

> <PUBCHEM_ISOTOPIC_ATOM_COUNT>
0

> <PUBCHEM_COMPONENT_COUNT>
1

> <PUBCHEM_CACTVS_TAUTO_COUNT>
2

> <PUBCHEM_COORDINATE_TYPE>
1
5
255

> <PUBCHEM_BONDANNOTATIONS>
10  13  8
12  15  8
13  15  8
17  18  8
17  19  8
18  20  8
19  21  8
20  22  8
21  22  8
3  6  3
7  10  8
7  9  8
9  12  8

$$$$
17372778
  -OEChem-05231304472D

 27 27  0     0  0  0  0  0  0999 V2000
    5.4641    0.0000    0.0000 S   0  0  0  0  0  0  0  0  0  0  0  0
    3.7320    0.0000    0.0000 N   0  0  0  0  0  0  0  0  0  0  0  0
    4.5981    1.5000    0.0000 N   0  0  0  0  0  0  0  0  0  0  0  0
    3.7320   -1.0000    0.0000 C   0  0  0  0  0  0  0  0  0  0  0  0
    2.8660   -1.5000    0.0000 C   0  0  0  0  0  0  0  0  0  0  0  0
    4.5981   -1.5000    0.0000 C   0  0  0  0  0  0  0  0  0  0  0  0
    2.8660   -2.5000    0.0000 C   0  0  0  0  0  0  0  0  0  0  0  0
    5.4641    2.0000    0.0000 C   0  0  0  0  0  0  0  0  0  0  0  0
    2.0000   -1.0000    0.0000 C   0  0  0  0  0  0  0  0  0  0  0  0
    4.5981    0.5000    0.0000 C   0  0  0  0  0  0  0  0  0  0  0  0
    4.5981   -2.5000    0.0000 C   0  0  0  0  0  0  0  0  0  0  0  0
    3.7320   -3.0000    0.0000 C   0  0  0  0  0  0  0  0  0  0  0  0
    5.4641    3.0000    0.0000 C   0  0  0  0  0  0  0  0  0  0  0  0
    3.1951    0.3100    0.0000 H   0  0  0  0  0  0  0  0  0  0  0  0
    5.1350   -1.1900    0.0000 H   0  0  0  0  0  0  0  0  0  0  0  0
    2.3291   -2.8100    0.0000 H   0  0  0  0  0  0  0  0  0  0  0  0
    5.6762    1.4174    0.0000 H   0  0  0  0  0  0  0  0  0  0  0  0
    6.0747    2.1077    0.0000 H   0  0  0  0  0  0  0  0  0  0  0  0
    2.3100   -0.4631    0.0000 H   0  0  0  0  0  0  0  0  0  0  0  0
    1.4631   -0.6900    0.0000 H   0  0  0  0  0  0  0  0  0  0  0  0
    1.6900   -1.5369    0.0000 H   0  0  0  0  0  0  0  0  0  0  0  0
    4.0611    1.8100    0.0000 H   0  0  0  0  0  0  0  0  0  0  0  0
    5.1350   -2.8100    0.0000 H   0  0  0  0  0  0  0  0  0  0  0  0
    3.7320   -3.6200    0.0000 H   0  0  0  0  0  0  0  0  0  0  0  0
    6.0841    3.0000    0.0000 H   0  0  0  0  0  0  0  0  0  0  0  0
    5.4641    3.6200    0.0000 H   0  0  0  0  0  0  0  0  0  0  0  0
    4.8441    3.0000    0.0000 H   0  0  0  0  0  0  0  0  0  0  0  0
  1 10  2  0  0  0  0
  2  4  1  0  0  0  0
  2 10  1  0  0  0  0
  2 14  1  0  0  0  0
  3  8  1  0  0  0  0
  3 10  1  0  0  0  0
  3 22  1  0  0  0  0
  4  5  1  0  0  0  0
  4  6  2  0  0  0  0
  5  7  2  0  0  0  0
  5  9  1  0  0  0  0
  6 11  1  0  0  0  0
  6 15  1  0  0  0  0
  7 12  1  0  0  0  0
  7 16  1  0  0  0  0
  8 13  1  0  0  0  0
  8 17  1  0  0  0  0
  8 18  1  0  0  0  0
  9 19  1  0  0  0  0
  9 20  1  0  0  0  0
  9 21  1  0  0  0  0
 11 12  2  0  0  0  0
 11 23  1  0  0  0  0
 12 24  1  0  0  0  0
 13 25  1  0  0  0  0
 13 26  1  0  0  0  0
 13 27  1  0  0  0  0
M  END
> <PUBCHEM_COMPOUND_CID>
17372778

> <PUBCHEM_COMPOUND_CANONICALIZED>
1

> <PUBCHEM_CACTVS_COMPLEXITY>
170

> <PUBCHEM_CACTVS_HBOND_ACCEPTOR>
1

> <PUBCHEM_CACTVS_HBOND_DONOR>
2

> <PUBCHEM_CACTVS_ROTATABLE_BOND>
2

> <PUBCHEM_CACTVS_SUBSKEYS>
AAADccBzAABAAAAAAAAAAAAAAAAAAAAAAAAwAAAAAAAAAAABAAAAHAQQAAAADAjBGAQzwILAAACEAiRCQACCAAAhAgkIiIAIZIiIICLAkZGEIAhokAJIyCcQgAAOAAAAAAACAAAAAAAAAAQAAAAAAAAAAA==

> <PUBCHEM_IUPAC_OPENEYE_NAME>
1-ethyl-3-(o-tolyl)thiourea

> <PUBCHEM_IUPAC_CAS_NAME>
1-ethyl-3-(2-methylphenyl)thiourea

> <PUBCHEM_IUPAC_NAME>
1-ethyl-3-(2-methylphenyl)thiourea

> <PUBCHEM_IUPAC_SYSTEMATIC_NAME>
1-ethyl-3-(2-methylphenyl)thiourea

> <PUBCHEM_IUPAC_TRADITIONAL_NAME>
1-ethyl-3-(o-tolyl)thiourea

> <PUBCHEM_IUPAC_INCHI>
InChI=1S/C10H14N2S/c1-3-11-10(13)12-9-7-5-4-6-8(9)2/h4-7H,3H2,1-2H3,(H2,11,12,13)

> <PUBCHEM_IUPAC_INCHIKEY>
SEKFQSVIMMYWNA-UHFFFAOYSA-N

> <PUBCHEM_XLOGP3>
1.7

> <PUBCHEM_EXACT_MASS>
194.087769

> <PUBCHEM_MOLECULAR_FORMULA>
C10H14N2S

> <PUBCHEM_MOLECULAR_WEIGHT>
194.29656

> <PUBCHEM_OPENEYE_CAN_SMILES>
CCNC(=S)NC1=CC=CC=C1C

> <PUBCHEM_OPENEYE_ISO_SMILES>
CCNC(=S)NC1=CC=CC=C1C

> <PUBCHEM_CACTVS_TPSA>
56.2

> <PUBCHEM_MONOISOTOPIC_WEIGHT>
194.087769

> <PUBCHEM_TOTAL_CHARGE>
0

> <PUBCHEM_HEAVY_ATOM_COUNT>
13

> <PUBCHEM_ATOM_DEF_STEREO_COUNT>
0

> <PUBCHEM_ATOM_UDEF_STEREO_COUNT>
0

> <PUBCHEM_BOND_DEF_STEREO_COUNT>
0

> <PUBCHEM_BOND_UDEF_STEREO_COUNT>
0

> <PUBCHEM_ISOTOPIC_ATOM_COUNT>
0

> <PUBCHEM_COMPONENT_COUNT>
1

> <PUBCHEM_CACTVS_TAUTO_COUNT>
3

> <PUBCHEM_COORDINATE_TYPE>
1
5
255

> <PUBCHEM_BONDANNOTATIONS>
11  12  8
4  5  8
4  6  8
5  7  8
6  11  8
7  12  8

$$$$
17372800
  -OEChem-05231304472D

 41 42  0     1  0  0  0  0  0999 V2000
    5.4641   -0.8343    0.0000 O   0  0  0  0  0  0  0  0  0  0  0  0
    2.8660   -0.3343    0.0000 N   0  3  0  0  0  0  0  0  0  0  0  0
    6.3301   -0.3343    0.0000 C   0  0  3  0  0  0  0  0  0  0  0  0
    6.3301    0.6657    0.0000 C   0  0  0  0  0  0  0  0  0  0  0  0
    7.1962   -0.8343    0.0000 C   0  0  0  0  0  0  0  0  0  0  0  0
    3.7320   -0.8343    0.0000 C   0  0  0  0  0  0  0  0  0  0  0  0
    7.1962    1.1657    0.0000 C   0  0  0  0  0  0  0  0  0  0  0  0
    8.0622   -0.3343    0.0000 C   0  0  0  0  0  0  0  0  0  0  0  0
    4.5981   -0.3343    0.0000 C   0  0  0  0  0  0  0  0  0  0  0  0
    8.0622    0.6657    0.0000 C   0  0  0  0  0  0  0  0  0  0  0  0
    2.0000    0.1657    0.0000 C   0  0  0  0  0  0  0  0  0  0  0  0
    2.3660   -1.2003    0.0000 C   0  0  0  0  0  0  0  0  0  0  0  0
    3.3660    0.5317    0.0000 C   0  0  0  0  0  0  0  0  0  0  0  0
    8.9561   -0.8690    0.0000 C   0  0  0  0  0  0  0  0  0  0  0  0
    8.9561    1.2003    0.0000 C   0  0  0  0  0  0  0  0  0  0  0  0
    9.8622   -0.3551    0.0000 C   0  0  0  0  0  0  0  0  0  0  0  0
    9.8622    0.6865    0.0000 C   0  0  0  0  0  0  0  0  0  0  0  0
    5.7932   -0.0243    0.0000 H   0  0  0  0  0  0  0  0  0  0  0  0
    6.1181    1.2483    0.0000 H   0  0  0  0  0  0  0  0  0  0  0  0
    5.7196    0.5580    0.0000 H   0  0  0  0  0  0  0  0  0  0  0  0
    6.7976   -1.3093    0.0000 H   0  0  0  0  0  0  0  0  0  0  0  0
    7.5947   -1.3093    0.0000 H   0  0  0  0  0  0  0  0  0  0  0  0
    3.3335   -1.3093    0.0000 H   0  0  0  0  0  0  0  0  0  0  0  0
    4.1306   -1.3093    0.0000 H   0  0  0  0  0  0  0  0  0  0  0  0
    7.5947    1.6406    0.0000 H   0  0  0  0  0  0  0  0  0  0  0  0
    6.7976    1.6406    0.0000 H   0  0  0  0  0  0  0  0  0  0  0  0
    4.9966    0.1406    0.0000 H   0  0  0  0  0  0  0  0  0  0  0  0
    4.1996    0.1406    0.0000 H   0  0  0  0  0  0  0  0  0  0  0  0
    3.9030    0.2217    0.0000 H   0  0  0  0  0  0  0  0  0  0  0  0
    3.6760    1.0686    0.0000 H   0  0  0  0  0  0  0  0  0  0  0  0
    2.8291    0.8417    0.0000 H   0  0  0  0  0  0  0  0  0  0  0  0
    1.8291   -0.8903    0.0000 H   0  0  0  0  0  0  0  0  0  0  0  0
    2.0560   -1.7373    0.0000 H   0  0  0  0  0  0  0  0  0  0  0  0
    2.3100    0.7026    0.0000 H   0  0  0  0  0  0  0  0  0  0  0  0
    1.4631    0.4757    0.0000 H   0  0  0  0  0  0  0  0  0  0  0  0
    1.6900   -0.3713    0.0000 H   0  0  0  0  0  0  0  0  0  0  0  0
    2.9030   -1.5103    0.0000 H   0  0  0  0  0  0  0  0  0  0  0  0
    8.9490   -1.4889    0.0000 H   0  0  0  0  0  0  0  0  0  0  0  0
    8.9490    1.8203    0.0000 H   0  0  0  0  0  0  0  0  0  0  0  0
   10.3979   -0.6672    0.0000 H   0  0  0  0  0  0  0  0  0  0  0  0
   10.3979    0.9986    0.0000 H   0  0  0  0  0  0  0  0  0  0  0  0
  1  3  1  0  0  0  0
  1  9  1  0  0  0  0
  2  6  1  0  0  0  0
  2 11  1  0  0  0  0
  2 12  1  0  0  0  0
  2 13  1  0  0  0  0
  3  4  1  0  0  0  0
  3  5  1  0  0  0  0
  3 18  1  0  0  0  0
  4  7  1  0  0  0  0
  4 19  1  0  0  0  0
  4 20  1  0  0  0  0
  5  8  1  0  0  0  0
  5 21  1  0  0  0  0
  5 22  1  0  0  0  0
  6  9  1  0  0  0  0
  6 23  1  0  0  0  0
  6 24  1  0  0  0  0
  7 10  1  0  0  0  0
  7 25  1  0  0  0  0
  7 26  1  0  0  0  0
  8 10  1  0  0  0  0
  8 14  2  0  0  0  0
  9 27  1  0  0  0  0
  9 28  1  0  0  0  0
 10 15  2  0  0  0  0
 11 34  1  0  0  0  0
 11 35  1  0  0  0  0
 11 36  1  0  0  0  0
 12 32  1  0  0  0  0
 12 33  1  0  0  0  0
 12 37  1  0  0  0  0
 13 29  1  0  0  0  0
 13 30  1  0  0  0  0
 13 31  1  0  0  0  0
 14 16  1  0  0  0  0
 14 38  1  0  0  0  0
 15 17  1  0  0  0  0
 15 39  1  0  0  0  0
 16 17  2  0  0  0  0
 16 40  1  0  0  0  0
 17 41  1  0  0  0  0
M  CHG  1   2   1
M  END
> <PUBCHEM_COMPOUND_CID>
17372800

> <PUBCHEM_COMPOUND_CANONICALIZED>
1

> <PUBCHEM_CACTVS_COMPLEXITY>
234

> <PUBCHEM_CACTVS_HBOND_ACCEPTOR>
1

> <PUBCHEM_CACTVS_HBOND_DONOR>
0

> <PUBCHEM_CACTVS_ROTATABLE_BOND>
4

> <PUBCHEM_CACTVS_SUBSKEYS>
AAADceByIAAAAAAAAAAAAAAAAAAAAAAAAAAwYAAAAAAAAADBAAAAHgAAAAAADBThmAYyAIMABACAAiBCAAACAAAgAAAIiAAIAIgKICKAERCDIAAkwAEYiAeAwLAOgAAAAAAQAABAAAIAACAAAAAAAAAAAA==

> <PUBCHEM_IUPAC_OPENEYE_NAME>
trimethyl(2-tetralin-2-yloxyethyl)ammonium

> <PUBCHEM_IUPAC_CAS_NAME>
trimethyl-[2-(1,2,3,4-tetrahydronaphthalen-2-yloxy)ethyl]ammonium

> <PUBCHEM_IUPAC_NAME>
trimethyl-[2-(1,2,3,4-tetrahydronaphthalen-2-yloxy)ethyl]azanium

> <PUBCHEM_IUPAC_SYSTEMATIC_NAME>
trimethyl-[2-(1,2,3,4-tetrahydronaphthalen-2-yloxy)ethyl]azanium

> <PUBCHEM_IUPAC_TRADITIONAL_NAME>
trimethyl(2-tetralin-2-yloxyethyl)ammonium

> <PUBCHEM_IUPAC_INCHI>
InChI=1S/C15H24NO/c1-16(2,3)10-11-17-15-9-8-13-6-4-5-7-14(13)12-15/h4-7,15H,8-12H2,1-3H3/q+1

> <PUBCHEM_IUPAC_INCHIKEY>
GYVDHBJFAIIIFO-UHFFFAOYSA-N

> <PUBCHEM_XLOGP3>
2.9

> <PUBCHEM_EXACT_MASS>
234.185789

> <PUBCHEM_MOLECULAR_FORMULA>
C15H24NO+

> <PUBCHEM_MOLECULAR_WEIGHT>
234.35716

> <PUBCHEM_OPENEYE_CAN_SMILES>
C[N+](C)(C)CCOC1CCC2=CC=CC=C2C1

> <PUBCHEM_OPENEYE_ISO_SMILES>
C[N+](C)(C)CCOC1CCC2=CC=CC=C2C1

> <PUBCHEM_CACTVS_TPSA>
9.2

> <PUBCHEM_MONOISOTOPIC_WEIGHT>
234.185789

> <PUBCHEM_TOTAL_CHARGE>
1

> <PUBCHEM_HEAVY_ATOM_COUNT>
17

> <PUBCHEM_ATOM_DEF_STEREO_COUNT>
0

> <PUBCHEM_ATOM_UDEF_STEREO_COUNT>
1

> <PUBCHEM_BOND_DEF_STEREO_COUNT>
0

> <PUBCHEM_BOND_UDEF_STEREO_COUNT>
0

> <PUBCHEM_ISOTOPIC_ATOM_COUNT>
0

> <PUBCHEM_COMPONENT_COUNT>
1

> <PUBCHEM_CACTVS_TAUTO_COUNT>
1

> <PUBCHEM_COORDINATE_TYPE>
1
5
255

> <PUBCHEM_BONDANNOTATIONS>
3  1  3
10  15  8
14  16  8
15  17  8
16  17  8
8  10  8
8  14  8

$$$$
17374727
  -OEChem-05231304472D

 29 30  0     0  0  0  0  0  0999 V2000
    3.7320   -3.5194    0.0000 Br  0  0  0  0  0  0  0  0  0  0  0  0
    2.0000   -2.5194    0.0000 Cl  0  0  0  0  0  0  0  0  0  0  0  0
    5.4641    0.4806    0.0000 O   0  0  0  0  0  0  0  0  0  0  0  0
    3.7320    0.4806    0.0000 N   0  0  0  0  0  0  0  0  0  0  0  0
    4.5981    1.9806    0.0000 C   0  0  0  0  0  0  0  0  0  0  0  0
    5.4071    2.5684    0.0000 C   0  0  0  0  0  0  0  0  0  0  0  0
    3.7891    2.5684    0.0000 C   0  0  0  0  0  0  0  0  0  0  0  0
    5.0981    3.5194    0.0000 C   0  0  0  0  0  0  0  0  0  0  0  0
    4.0981    3.5194    0.0000 C   0  0  0  0  0  0  0  0  0  0  0  0
    4.5981    0.9806    0.0000 C   0  0  0  0  0  0  0  0  0  0  0  0
    3.7320   -0.5194    0.0000 C   0  0  0  0  0  0  0  0  0  0  0  0
    2.8660   -1.0194    0.0000 C   0  0  0  0  0  0  0  0  0  0  0  0
    4.5981   -1.0194    0.0000 C   0  0  0  0  0  0  0  0  0  0  0  0
    2.8660   -2.0194    0.0000 C   0  0  0  0  0  0  0  0  0  0  0  0
    4.5981   -2.0194    0.0000 C   0  0  0  0  0  0  0  0  0  0  0  0
    3.7320   -2.5194    0.0000 C   0  0  0  0  0  0  0  0  0  0  0  0
    5.1505    1.6991    0.0000 H   0  0  0  0  0  0  0  0  0  0  0  0
    5.7171    2.0314    0.0000 H   0  0  0  0  0  0  0  0  0  0  0  0
    5.9735    2.8205    0.0000 H   0  0  0  0  0  0  0  0  0  0  0  0
    3.2227    2.8205    0.0000 H   0  0  0  0  0  0  0  0  0  0  0  0
    3.4791    2.0314    0.0000 H   0  0  0  0  0  0  0  0  0  0  0  0
    5.7045    3.6483    0.0000 H   0  0  0  0  0  0  0  0  0  0  0  0
    5.0333    4.1360    0.0000 H   0  0  0  0  0  0  0  0  0  0  0  0
    4.1629    4.1360    0.0000 H   0  0  0  0  0  0  0  0  0  0  0  0
    3.4916    3.6483    0.0000 H   0  0  0  0  0  0  0  0  0  0  0  0
    3.1951    0.7906    0.0000 H   0  0  0  0  0  0  0  0  0  0  0  0
    2.3291   -0.7094    0.0000 H   0  0  0  0  0  0  0  0  0  0  0  0
    5.1350   -0.7094    0.0000 H   0  0  0  0  0  0  0  0  0  0  0  0
    5.1350   -2.3294    0.0000 H   0  0  0  0  0  0  0  0  0  0  0  0
  1 16  1  0  0  0  0
  2 14  1  0  0  0  0
  3 10  2  0  0  0  0
  4 10  1  0  0  0  0
  4 11  1  0  0  0  0
  4 26  1  0  0  0  0
  5  6  1  0  0  0  0
  5  7  1  0  0  0  0
  5 10  1  0  0  0  0
  5 17  1  0  0  0  0
  6  8  1  0  0  0  0
  6 18  1  0  0  0  0
  6 19  1  0  0  0  0
  7  9  1  0  0  0  0
  7 20  1  0  0  0  0
  7 21  1  0  0  0  0
  8  9  1  0  0  0  0
  8 22  1  0  0  0  0
  8 23  1  0  0  0  0
  9 24  1  0  0  0  0
  9 25  1  0  0  0  0
 11 12  2  0  0  0  0
 11 13  1  0  0  0  0
 12 14  1  0  0  0  0
 12 27  1  0  0  0  0
 13 15  2  0  0  0  0
 13 28  1  0  0  0  0
 14 16  2  0  0  0  0
 15 16  1  0  0  0  0
 15 29  1  0  0  0  0
M  END
> <PUBCHEM_COMPOUND_CID>
17374727

> <PUBCHEM_COMPOUND_CANONICALIZED>
1

> <PUBCHEM_CACTVS_COMPLEXITY>
255

> <PUBCHEM_CACTVS_HBOND_ACCEPTOR>
1

> <PUBCHEM_CACTVS_HBOND_DONOR>
1

> <PUBCHEM_CACTVS_ROTATABLE_BOND>
2

> <PUBCHEM_CACTVS_SUBSKEYS>
AAADccByIAAEEAAAAAAAAAAAAAAAAYAAAAAwAAAAAAAAAAABAAAAHgJQAAABrQqBkCAwwILAAACIACVSUACCAAAhBwQIiAEAZqgIIDLBk5GEIAhglADIyhcYCAAOAAAgAAIAAAIAAEAABAAABAAAAAAAAA==

> <PUBCHEM_IUPAC_OPENEYE_NAME>
N-(4-bromo-3-chloro-phenyl)cyclopentanecarboxamide

> <PUBCHEM_IUPAC_CAS_NAME>
N-(4-bromo-3-chlorophenyl)cyclopentanecarboxamide

> <PUBCHEM_IUPAC_NAME>
N-(4-bromo-3-chlorophenyl)cyclopentanecarboxamide

> <PUBCHEM_IUPAC_SYSTEMATIC_NAME>
N-(4-bromanyl-3-chloranyl-phenyl)cyclopentanecarboxamide

> <PUBCHEM_IUPAC_TRADITIONAL_NAME>
N-(4-bromo-3-chloro-phenyl)cyclopentanecarboxamide

> <PUBCHEM_IUPAC_INCHI>
InChI=1S/C12H13BrClNO/c13-10-6-5-9(7-11(10)14)15-12(16)8-3-1-2-4-8/h5-8H,1-4H2,(H,15,16)

> <PUBCHEM_IUPAC_INCHIKEY>
OCNRRTFNSBSYQV-UHFFFAOYSA-N

> <PUBCHEM_XLOGP3>
3.5

> <PUBCHEM_EXACT_MASS>
300.986904

> <PUBCHEM_MOLECULAR_FORMULA>
C12H13BrClNO

> <PUBCHEM_MOLECULAR_WEIGHT>
302.59472

> <PUBCHEM_OPENEYE_CAN_SMILES>
C1CCC(C1)C(=O)NC2=CC(=C(C=C2)Br)Cl

> <PUBCHEM_OPENEYE_ISO_SMILES>
C1CCC(C1)C(=O)NC2=CC(=C(C=C2)Br)Cl

> <PUBCHEM_CACTVS_TPSA>
29.1

> <PUBCHEM_MONOISOTOPIC_WEIGHT>
300.986904

> <PUBCHEM_TOTAL_CHARGE>
0

> <PUBCHEM_HEAVY_ATOM_COUNT>
16

> <PUBCHEM_ATOM_DEF_STEREO_COUNT>
0

> <PUBCHEM_ATOM_UDEF_STEREO_COUNT>
0

> <PUBCHEM_BOND_DEF_STEREO_COUNT>
0

> <PUBCHEM_BOND_UDEF_STEREO_COUNT>
0

> <PUBCHEM_ISOTOPIC_ATOM_COUNT>
0

> <PUBCHEM_COMPONENT_COUNT>
1

> <PUBCHEM_CACTVS_TAUTO_COUNT>
3

> <PUBCHEM_COORDINATE_TYPE>
1
5
255

> <PUBCHEM_BONDANNOTATIONS>
11  12  8
11  13  8
12  14  8
13  15  8
14  16  8
15  16  8

$$$$
