18077187
  -OEChem-11301217222D

 45 47  0     0  0  0  0  0  0999 V2000
    6.6353   -0.9676    0.0000 O   0  0  0  0  0  0  0  0  0  0  0  0
    6.2781    0.7272    0.0000 N   0  0  0  0  0  0  0  0  0  0  0  0
    4.6783   -2.9895    0.0000 N   0  0  0  0  0  0  0  0  0  0  0  0
    7.2566    0.9335    0.0000 C   0  0  0  0  0  0  0  0  0  0  0  0
    4.6783   -1.3800    0.0000 C   0  0  0  0  0  0  0  0  0  0  0  0
    7.9244    0.1892    0.0000 C   0  0  0  0  0  0  0  0  0  0  0  0
    7.5673    1.8840    0.0000 C   0  0  0  0  0  0  0  0  0  0  0  0
    4.9889   -0.4295    0.0000 C   0  0  0  0  0  0  0  0  0  0  0  0
    3.7320   -1.6848    0.0000 C   0  0  0  0  0  0  0  0  0  0  0  0
    3.7320   -2.6848    0.0000 C   0  0  0  0  0  0  0  0  0  0  0  0
    7.6138   -0.7614    0.0000 C   0  0  0  0  0  0  0  0  0  0  0  0
    6.8994    2.6283    0.0000 C   0  0  0  0  0  0  0  0  0  0  0  0
    5.9674   -0.2233    0.0000 C   0  0  0  0  0  0  0  0  0  0  0  0
    5.2619   -2.1848    0.0000 C   0  0  0  0  0  0  0  0  0  0  0  0
    8.9030    0.3954    0.0000 C   0  0  0  0  0  0  0  0  0  0  0  0
    8.5458    2.0902    0.0000 C   0  0  0  0  0  0  0  0  0  0  0  0
    2.8660   -1.1848    0.0000 C   0  0  0  0  0  0  0  0  0  0  0  0
    9.2136    1.3459    0.0000 C   0  0  0  0  0  0  0  0  0  0  0  0
    2.8660   -3.1848    0.0000 C   0  0  0  0  0  0  0  0  0  0  0  0
    8.2816   -1.5057    0.0000 C   0  0  0  0  0  0  0  0  0  0  0  0
    7.2101    3.5788    0.0000 C   0  0  0  0  0  0  0  0  0  0  0  0
    2.0000   -1.6848    0.0000 C   0  0  0  0  0  0  0  0  0  0  0  0
    2.0000   -2.6848    0.0000 C   0  0  0  0  0  0  0  0  0  0  0  0
    4.9684    0.1902    0.0000 H   0  0  0  0  0  0  0  0  0  0  0  0
    4.3751   -0.3421    0.0000 H   0  0  0  0  0  0  0  0  0  0  0  0
    5.8640    1.1887    0.0000 H   0  0  0  0  0  0  0  0  0  0  0  0
    7.0669   -0.4693    0.0000 H   0  0  0  0  0  0  0  0  0  0  0  0
    7.2312   -1.2493    0.0000 H   0  0  0  0  0  0  0  0  0  0  0  0
    6.3525    2.9203    0.0000 H   0  0  0  0  0  0  0  0  0  0  0  0
    6.5169    2.1404    0.0000 H   0  0  0  0  0  0  0  0  0  0  0  0
    5.8819   -2.1848    0.0000 H   0  0  0  0  0  0  0  0  0  0  0  0
    4.8709   -3.5788    0.0000 H   0  0  0  0  0  0  0  0  0  0  0  0
    9.3170   -0.0661    0.0000 H   0  0  0  0  0  0  0  0  0  0  0  0
    8.7384    2.6795    0.0000 H   0  0  0  0  0  0  0  0  0  0  0  0
    2.8660   -0.5647    0.0000 H   0  0  0  0  0  0  0  0  0  0  0  0
    9.8203    1.4737    0.0000 H   0  0  0  0  0  0  0  0  0  0  0  0
    2.8660   -3.8048    0.0000 H   0  0  0  0  0  0  0  0  0  0  0  0
    7.8202   -1.9197    0.0000 H   0  0  0  0  0  0  0  0  0  0  0  0
    8.6957   -1.9671    0.0000 H   0  0  0  0  0  0  0  0  0  0  0  0
    8.7431   -1.0916    0.0000 H   0  0  0  0  0  0  0  0  0  0  0  0
    7.7994    3.3862    0.0000 H   0  0  0  0  0  0  0  0  0  0  0  0
    7.4027    4.1681    0.0000 H   0  0  0  0  0  0  0  0  0  0  0  0
    6.6208    3.7714    0.0000 H   0  0  0  0  0  0  0  0  0  0  0  0
    1.4631   -1.3748    0.0000 H   0  0  0  0  0  0  0  0  0  0  0  0
    1.4631   -2.9947    0.0000 H   0  0  0  0  0  0  0  0  0  0  0  0
  1 13  2  0  0  0  0
  2  4  1  0  0  0  0
  2 13  1  0  0  0  0
  2 26  1  0  0  0  0
  3 10  1  0  0  0  0
  3 14  1  0  0  0  0
  3 32  1  0  0  0  0
  4  6  2  0  0  0  0
  4  7  1  0  0  0  0
  5  8  1  0  0  0  0
  5  9  1  0  0  0  0
  5 14  2  0  0  0  0
  6 11  1  0  0  0  0
  6 15  1  0  0  0  0
  7 12  1  0  0  0  0
  7 16  2  0  0  0  0
  8 13  1  0  0  0  0
  8 24  1  0  0  0  0
  8 25  1  0  0  0  0
  9 10  1  0  0  0  0
  9 17  2  0  0  0  0
 10 19  2  0  0  0  0
 11 20  1  0  0  0  0
 11 27  1  0  0  0  0
 11 28  1  0  0  0  0
 12 21  1  0  0  0  0
 12 29  1  0  0  0  0
 12 30  1  0  0  0  0
 14 31  1  0  0  0  0
 15 18  2  0  0  0  0
 15 33  1  0  0  0  0
 16 18  1  0  0  0  0
 16 34  1  0  0  0  0
 17 22  1  0  0  0  0
 17 35  1  0  0  0  0
 18 36  1  0  0  0  0
 19 23  1  0  0  0  0
 19 37  1  0  0  0  0
 20 38  1  0  0  0  0
 20 39  1  0  0  0  0
 20 40  1  0  0  0  0
 21 41  1  0  0  0  0
 21 42  1  0  0  0  0
 21 43  1  0  0  0  0
 22 23  2  0  0  0  0
 22 44  1  0  0  0  0
 23 45  1  0  0  0  0
M  END
> <PUBCHEM_COMPOUND_CID>
18077187

> <PUBCHEM_COMPOUND_CANONICALIZED>
1

> <PUBCHEM_CACTVS_COMPLEXITY>
385

> <PUBCHEM_CACTVS_HBOND_ACCEPTOR>
1

> <PUBCHEM_CACTVS_HBOND_DONOR>
2

> <PUBCHEM_CACTVS_ROTATABLE_BOND>
5

> <PUBCHEM_CACTVS_SUBSKEYS>
AAADceB7IAAAAAAAAAAAAAAAAAAAAWAAAAAwYAAAAAAAAFgB9AAAHgAQAAAADAjBngQ+wPLJkACoAzV3VACCgCAxAiAI2aE4ZJgIIPLAlZGEIAhglADIyAccicCegAACAAACAAAAAAQAAAQAAAAAAAAAAA==

> <PUBCHEM_IUPAC_OPENEYE_NAME>
N-(2,6-diethylphenyl)-2-(1H-indol-3-yl)acetamide

> <PUBCHEM_IUPAC_CAS_NAME>
N-(2,6-diethylphenyl)-2-(1H-indol-3-yl)acetamide

> <PUBCHEM_IUPAC_NAME>
N-(2,6-diethylphenyl)-2-(1H-indol-3-yl)acetamide

> <PUBCHEM_IUPAC_SYSTEMATIC_NAME>
N-(2,6-diethylphenyl)-2-(1H-indol-3-yl)ethanamide

> <PUBCHEM_IUPAC_TRADITIONAL_NAME>
N-(2,6-diethylphenyl)-2-(1H-indol-3-yl)acetamide

> <PUBCHEM_IUPAC_INCHI>
InChI=1S/C20H22N2O/c1-3-14-8-7-9-15(4-2)20(14)22-19(23)12-16-13-21-18-11-6-5-10-17(16)18/h5-11,13,21H,3-4,12H2,1-2H3,(H,22,23)

> <PUBCHEM_IUPAC_INCHIKEY>
UDKJZWZUXFRGGL-UHFFFAOYSA-N

> <PUBCHEM_XLOGP3>
4.3

> <PUBCHEM_EXACT_MASS>
306.173213

> <PUBCHEM_MOLECULAR_FORMULA>
C20H22N2O

> <PUBCHEM_MOLECULAR_WEIGHT>
306.40148

> <PUBCHEM_OPENEYE_CAN_SMILES>
CCC1=C(C(=CC=C1)CC)NC(=O)CC2=CNC3=CC=CC=C32

> <PUBCHEM_OPENEYE_ISO_SMILES>
CCC1=C(C(=CC=C1)CC)NC(=O)CC2=CNC3=CC=CC=C32

> <PUBCHEM_CACTVS_TPSA>
44.9

> <PUBCHEM_MONOISOTOPIC_WEIGHT>
306.173213

> <PUBCHEM_TOTAL_CHARGE>
0

> <PUBCHEM_HEAVY_ATOM_COUNT>
23

> <PUBCHEM_ATOM_DEF_STEREO_COUNT>
0

> <PUBCHEM_ATOM_UDEF_STEREO_COUNT>
0

> <PUBCHEM_BOND_DEF_STEREO_COUNT>
0

> <PUBCHEM_BOND_UDEF_STEREO_COUNT>
0

> <PUBCHEM_ISOTOPIC_ATOM_COUNT>
0

> <PUBCHEM_COMPONENT_COUNT>
1

> <PUBCHEM_CACTVS_TAUTO_COUNT>
3

> <PUBCHEM_COORDINATE_TYPE>
1
5
255

> <PUBCHEM_BONDANNOTATIONS>
10  19  8
15  18  8
16  18  8
17  22  8
19  23  8
22  23  8
3  10  8
3  14  8
4  6  8
4  7  8
5  14  8
5  9  8
6  15  8
7  16  8
9  10  8
9  17  8

$$$$
18079599
  -OEChem-11301217222D

 31 33  0     0  0  0  0  0  0999 V2000
    5.4641   -1.7500    0.0000 Cl  0  0  0  0  0  0  0  0  0  0  0  0
    7.1962    2.2500    0.0000 O   0  0  0  0  0  0  0  0  0  0  0  0
    7.1962   -0.7500    0.0000 N   0  0  0  0  0  0  0  0  0  0  0  0
    6.3301    0.7500    0.0000 N   0  0  0  0  0  0  0  0  0  0  0  0
    8.0622   -0.2500    0.0000 C   0  0  0  0  0  0  0  0  0  0  0  0
    8.0622    0.7500    0.0000 C   0  0  0  0  0  0  0  0  0  0  0  0
    6.3301   -0.2500    0.0000 C   0  0  0  0  0  0  0  0  0  0  0  0
    8.9561   -0.7847    0.0000 C   0  0  0  0  0  0  0  0  0  0  0  0
    8.9561    1.2847    0.0000 C   0  0  0  0  0  0  0  0  0  0  0  0
    7.1962    1.2500    0.0000 C   0  0  0  0  0  0  0  0  0  0  0  0
    5.4641   -0.7500    0.0000 C   0  0  0  0  0  0  0  0  0  0  0  0
    9.8622   -0.2708    0.0000 C   0  0  0  0  0  0  0  0  0  0  0  0
    9.8622    0.7708    0.0000 C   0  0  0  0  0  0  0  0  0  0  0  0
    3.7320   -0.7500    0.0000 C   0  0  0  0  0  0  0  0  0  0  0  0
    4.5981   -0.2500    0.0000 C   0  0  0  0  0  0  0  0  0  0  0  0
    2.8660   -0.2500    0.0000 C   0  0  0  0  0  0  0  0  0  0  0  0
    3.7320   -1.7500    0.0000 C   0  0  0  0  0  0  0  0  0  0  0  0
    2.0000   -0.7500    0.0000 C   0  0  0  0  0  0  0  0  0  0  0  0
    2.8660   -2.2500    0.0000 C   0  0  0  0  0  0  0  0  0  0  0  0
    2.0000   -1.7500    0.0000 C   0  0  0  0  0  0  0  0  0  0  0  0
    7.1962   -1.3700    0.0000 H   0  0  0  0  0  0  0  0  0  0  0  0
    8.9490   -1.4046    0.0000 H   0  0  0  0  0  0  0  0  0  0  0  0
    8.9490    1.9046    0.0000 H   0  0  0  0  0  0  0  0  0  0  0  0
   10.3979   -0.5829    0.0000 H   0  0  0  0  0  0  0  0  0  0  0  0
   10.3979    1.0829    0.0000 H   0  0  0  0  0  0  0  0  0  0  0  0
    4.5981    0.3700    0.0000 H   0  0  0  0  0  0  0  0  0  0  0  0
    2.8660    0.3700    0.0000 H   0  0  0  0  0  0  0  0  0  0  0  0
    4.2690   -2.0600    0.0000 H   0  0  0  0  0  0  0  0  0  0  0  0
    1.4631   -0.4400    0.0000 H   0  0  0  0  0  0  0  0  0  0  0  0
    2.8660   -2.8700    0.0000 H   0  0  0  0  0  0  0  0  0  0  0  0
    1.4631   -2.0600    0.0000 H   0  0  0  0  0  0  0  0  0  0  0  0
  1 11  1  0  0  0  0
  2 10  2  0  0  0  0
  3  5  1  0  0  0  0
  3  7  1  0  0  0  0
  3 21  1  0  0  0  0
  4  7  2  0  0  0  0
  4 10  1  0  0  0  0
  5  6  1  0  0  0  0
  5  8  2  0  0  0  0
  6  9  2  0  0  0  0
  6 10  1  0  0  0  0
  7 11  1  0  0  0  0
  8 12  1  0  0  0  0
  8 22  1  0  0  0  0
  9 13  1  0  0  0  0
  9 23  1  0  0  0  0
 11 15  2  0  0  0  0
 12 13  2  0  0  0  0
 12 24  1  0  0  0  0
 13 25  1  0  0  0  0
 14 15  1  0  0  0  0
 14 16  2  0  0  0  0
 14 17  1  0  0  0  0
 15 26  1  0  0  0  0
 16 18  1  0  0  0  0
 16 27  1  0  0  0  0
 17 19  2  0  0  0  0
 17 28  1  0  0  0  0
 18 20  2  0  0  0  0
 18 29  1  0  0  0  0
 19 20  1  0  0  0  0
 19 30  1  0  0  0  0
 20 31  1  0  0  0  0
M  END
> <PUBCHEM_COMPOUND_CID>
18079599

> <PUBCHEM_COMPOUND_CANONICALIZED>
1

> <PUBCHEM_CACTVS_COMPLEXITY>
438

> <PUBCHEM_CACTVS_HBOND_ACCEPTOR>
1

> <PUBCHEM_CACTVS_HBOND_DONOR>
1

> <PUBCHEM_CACTVS_ROTATABLE_BOND>
2

> <PUBCHEM_CACTVS_SUBSKEYS>
AAADccB7IAAEAAAAAAAAAAAAAAAAAAAAAAAwYIAAAAAAAACBQAAAHgIQAAAADAqBmAAxwILAAACoAidydACCAAElAgAJiAEAZNgIIDrA3ZHEIYhgkADIyccYiACOAAAAAAACAAAAAAAAAAQAAAAAAAAAAA==

> <PUBCHEM_IUPAC_OPENEYE_NAME>
2-[(Z)-1-chloro-2-phenyl-vinyl]-1H-quinazolin-4-one

> <PUBCHEM_IUPAC_CAS_NAME>
2-[(Z)-1-chloro-2-phenylethenyl]-1H-quinazolin-4-one

> <PUBCHEM_IUPAC_NAME>
2-[(Z)-1-chloro-2-phenylethenyl]-1H-quinazolin-4-one

> <PUBCHEM_IUPAC_SYSTEMATIC_NAME>
2-[(Z)-1-chloranyl-2-phenyl-ethenyl]-1H-quinazolin-4-one

> <PUBCHEM_IUPAC_TRADITIONAL_NAME>
2-[(Z)-1-chloro-2-phenyl-vinyl]-1H-quinazolin-4-one

> <PUBCHEM_IUPAC_INCHI>
InChI=1S/C16H11ClN2O/c17-13(10-11-6-2-1-3-7-11)15-18-14-9-5-4-8-12(14)16(20)19-15/h1-10H,(H,18,19,20)/b13-10-

> <PUBCHEM_IUPAC_INCHIKEY>
CZDCRRPFOMPYNU-RAXLEYEMSA-N

> <PUBCHEM_XLOGP3>
4.1

> <PUBCHEM_EXACT_MASS>
282.055991

> <PUBCHEM_MOLECULAR_FORMULA>
C16H11ClN2O

> <PUBCHEM_MOLECULAR_WEIGHT>
282.72434

> <PUBCHEM_OPENEYE_CAN_SMILES>
C1=CC=C(C=C1)C=C(C2=NC(=O)C3=CC=CC=C3N2)Cl

> <PUBCHEM_OPENEYE_ISO_SMILES>
C1=CC=C(C=C1)/C=C(/C2=NC(=O)C3=CC=CC=C3N2)\Cl

> <PUBCHEM_CACTVS_TPSA>
41.5

> <PUBCHEM_MONOISOTOPIC_WEIGHT>
282.055991

> <PUBCHEM_TOTAL_CHARGE>
0

> <PUBCHEM_HEAVY_ATOM_COUNT>
20

> <PUBCHEM_ATOM_DEF_STEREO_COUNT>
0

> <PUBCHEM_ATOM_UDEF_STEREO_COUNT>
0

> <PUBCHEM_BOND_DEF_STEREO_COUNT>
1

> <PUBCHEM_BOND_UDEF_STEREO_COUNT>
0

> <PUBCHEM_ISOTOPIC_ATOM_COUNT>
0

> <PUBCHEM_COMPONENT_COUNT>
1

> <PUBCHEM_CACTVS_TAUTO_COUNT>
3

> <PUBCHEM_COORDINATE_TYPE>
1
5
255

> <PUBCHEM_BONDANNOTATIONS>
12  13  8
14  16  8
14  17  8
16  18  8
17  19  8
18  20  8
19  20  8
3  5  8
3  7  8
4  10  8
4  7  8
5  6  8
5  8  8
6  10  8
6  9  8
8  12  8
9  13  8

$$$$
18079711
  -OEChem-11301217222D

 46 49  0     0  0  0  0  0  0999 V2000
    6.6353   -1.3397    0.0000 O   0  0  0  0  0  0  0  0  0  0  0  0
    6.2781    0.3551    0.0000 N   0  0  0  0  0  0  0  0  0  0  0  0
    4.6783   -3.3616    0.0000 N   0  0  0  0  0  0  0  0  0  0  0  0
    4.6783   -1.7522    0.0000 C   0  0  0  0  0  0  0  0  0  0  0  0
    4.9889   -0.8016    0.0000 C   0  0  0  0  0  0  0  0  0  0  0  0
    3.7320   -2.0569    0.0000 C   0  0  0  0  0  0  0  0  0  0  0  0
    3.7320   -3.0569    0.0000 C   0  0  0  0  0  0  0  0  0  0  0  0
    5.9674   -0.5954    0.0000 C   0  0  0  0  0  0  0  0  0  0  0  0
    5.6103    1.0994    0.0000 C   0  0  0  0  0  0  0  0  0  0  0  0
    5.2619   -2.5569    0.0000 C   0  0  0  0  0  0  0  0  0  0  0  0
    7.2566    0.5613    0.0000 C   0  0  0  0  0  0  0  0  0  0  0  0
    2.8660   -1.5569    0.0000 C   0  0  0  0  0  0  0  0  0  0  0  0
    5.9209    2.0499    0.0000 C   0  0  0  0  0  0  0  0  0  0  0  0
    2.8660   -3.5569    0.0000 C   0  0  0  0  0  0  0  0  0  0  0  0
    2.0000   -2.0569    0.0000 C   0  0  0  0  0  0  0  0  0  0  0  0
    2.0000   -3.0569    0.0000 C   0  0  0  0  0  0  0  0  0  0  0  0
    7.9244   -0.1830    0.0000 C   0  0  0  0  0  0  0  0  0  0  0  0
    7.5673    1.5118    0.0000 C   0  0  0  0  0  0  0  0  0  0  0  0
    6.8994    2.2561    0.0000 C   0  0  0  0  0  0  0  0  0  0  0  0
    5.2531    2.7942    0.0000 C   0  0  0  0  0  0  0  0  0  0  0  0
    8.9030    0.0232    0.0000 C   0  0  0  0  0  0  0  0  0  0  0  0
    8.5458    1.7180    0.0000 C   0  0  0  0  0  0  0  0  0  0  0  0
    7.2101    3.2066    0.0000 C   0  0  0  0  0  0  0  0  0  0  0  0
    5.5637    3.7447    0.0000 C   0  0  0  0  0  0  0  0  0  0  0  0
    9.2136    0.9737    0.0000 C   0  0  0  0  0  0  0  0  0  0  0  0
    6.5422    3.9510    0.0000 C   0  0  0  0  0  0  0  0  0  0  0  0
    4.9684   -0.1820    0.0000 H   0  0  0  0  0  0  0  0  0  0  0  0
    4.3751   -0.7143    0.0000 H   0  0  0  0  0  0  0  0  0  0  0  0
    5.0633    1.3914    0.0000 H   0  0  0  0  0  0  0  0  0  0  0  0
    5.2277    0.6115    0.0000 H   0  0  0  0  0  0  0  0  0  0  0  0
    5.8819   -2.5569    0.0000 H   0  0  0  0  0  0  0  0  0  0  0  0
    4.8709   -3.9510    0.0000 H   0  0  0  0  0  0  0  0  0  0  0  0
    2.8660   -0.9369    0.0000 H   0  0  0  0  0  0  0  0  0  0  0  0
    2.8660   -4.1769    0.0000 H   0  0  0  0  0  0  0  0  0  0  0  0
    1.4631   -1.7469    0.0000 H   0  0  0  0  0  0  0  0  0  0  0  0
    1.4631   -3.3669    0.0000 H   0  0  0  0  0  0  0  0  0  0  0  0
    7.7318   -0.7723    0.0000 H   0  0  0  0  0  0  0  0  0  0  0  0
    7.1532    1.9733    0.0000 H   0  0  0  0  0  0  0  0  0  0  0  0
    7.3135    1.7947    0.0000 H   0  0  0  0  0  0  0  0  0  0  0  0
    4.6464    2.6664    0.0000 H   0  0  0  0  0  0  0  0  0  0  0  0
    9.3170   -0.4382    0.0000 H   0  0  0  0  0  0  0  0  0  0  0  0
    8.7384    2.3074    0.0000 H   0  0  0  0  0  0  0  0  0  0  0  0
    7.8168    3.3345    0.0000 H   0  0  0  0  0  0  0  0  0  0  0  0
    5.1497    4.2062    0.0000 H   0  0  0  0  0  0  0  0  0  0  0  0
    9.8203    1.1016    0.0000 H   0  0  0  0  0  0  0  0  0  0  0  0
    6.7349    4.5403    0.0000 H   0  0  0  0  0  0  0  0  0  0  0  0
  1  8  2  0  0  0  0
  2  8  1  0  0  0  0
  2  9  1  0  0  0  0
  2 11  1  0  0  0  0
  3  7  1  0  0  0  0
  3 10  1  0  0  0  0
  3 32  1  0  0  0  0
  4  5  1  0  0  0  0
  4  6  1  0  0  0  0
  4 10  2  0  0  0  0
  5  8  1  0  0  0  0
  5 27  1  0  0  0  0
  5 28  1  0  0  0  0
  6  7  1  0  0  0  0
  6 12  2  0  0  0  0
  7 14  2  0  0  0  0
  9 13  1  0  0  0  0
  9 29  1  0  0  0  0
  9 30  1  0  0  0  0
 10 31  1  0  0  0  0
 11 17  2  0  0  0  0
 11 18  1  0  0  0  0
 12 15  1  0  0  0  0
 12 33  1  0  0  0  0
 13 19  2  0  0  0  0
 13 20  1  0  0  0  0
 14 16  1  0  0  0  0
 14 34  1  0  0  0  0
 15 16  2  0  0  0  0
 15 35  1  0  0  0  0
 16 36  1  0  0  0  0
 17 21  1  0  0  0  0
 17 37  1  0  0  0  0
 18 22  2  0  0  0  0
 18 38  1  0  0  0  0
 19 23  1  0  0  0  0
 19 39  1  0  0  0  0
 20 24  2  0  0  0  0
 20 40  1  0  0  0  0
 21 25  2  0  0  0  0
 21 41  1  0  0  0  0
 22 25  1  0  0  0  0
 22 42  1  0  0  0  0
 23 26  2  0  0  0  0
 23 43  1  0  0  0  0
 24 26  1  0  0  0  0
 24 44  1  0  0  0  0
 25 45  1  0  0  0  0
 26 46  1  0  0  0  0
M  END
> <PUBCHEM_COMPOUND_CID>
18079711

> <PUBCHEM_COMPOUND_CANONICALIZED>
1

> <PUBCHEM_CACTVS_COMPLEXITY>
453

> <PUBCHEM_CACTVS_HBOND_ACCEPTOR>
1

> <PUBCHEM_CACTVS_HBOND_DONOR>
1

> <PUBCHEM_CACTVS_ROTATABLE_BOND>
5

> <PUBCHEM_CACTVS_SUBSKEYS>
AAADceB7IAAAAAAAAAAAAAAAAAAAAWAAAAAwYMAAAAAAAFgB9AAAHgAQAAAADAjBngQ8wPPJkACoAzV3VACCgCAxAiAI2aE4ZJgIIPLAlZGEIAhglgDIyAccicCegAAAAAACAAAAAAAAAAQAAAAAAAAAAA==

> <PUBCHEM_IUPAC_OPENEYE_NAME>
N-benzyl-2-(1H-indol-3-yl)-N-phenyl-acetamide

> <PUBCHEM_IUPAC_CAS_NAME>
2-(1H-indol-3-yl)-N-phenyl-N-(phenylmethyl)acetamide

> <PUBCHEM_IUPAC_NAME>
N-benzyl-2-(1H-indol-3-yl)-N-phenylacetamide

> <PUBCHEM_IUPAC_SYSTEMATIC_NAME>
2-(1H-indol-3-yl)-N-phenyl-N-(phenylmethyl)ethanamide

> <PUBCHEM_IUPAC_TRADITIONAL_NAME>
N-benzyl-2-(1H-indol-3-yl)-N-phenyl-acetamide

> <PUBCHEM_IUPAC_INCHI>
InChI=1S/C23H20N2O/c26-23(15-19-16-24-22-14-8-7-13-21(19)22)25(20-11-5-2-6-12-20)17-18-9-3-1-4-10-18/h1-14,16,24H,15,17H2

> <PUBCHEM_IUPAC_INCHIKEY>
FLNFDGAQSVHCKS-UHFFFAOYSA-N

> <PUBCHEM_XLOGP3>
4.4

> <PUBCHEM_EXACT_MASS>
340.157563

> <PUBCHEM_MOLECULAR_FORMULA>
C23H20N2O

> <PUBCHEM_MOLECULAR_WEIGHT>
340.4177

> <PUBCHEM_OPENEYE_CAN_SMILES>
C1=CC=C(C=C1)CN(C2=CC=CC=C2)C(=O)CC3=CNC4=CC=CC=C43

> <PUBCHEM_OPENEYE_ISO_SMILES>
C1=CC=C(C=C1)CN(C2=CC=CC=C2)C(=O)CC3=CNC4=CC=CC=C43

> <PUBCHEM_CACTVS_TPSA>
36.1

> <PUBCHEM_MONOISOTOPIC_WEIGHT>
340.157563

> <PUBCHEM_TOTAL_CHARGE>
0

> <PUBCHEM_HEAVY_ATOM_COUNT>
26

> <PUBCHEM_ATOM_DEF_STEREO_COUNT>
0

> <PUBCHEM_ATOM_UDEF_STEREO_COUNT>
0

> <PUBCHEM_BOND_DEF_STEREO_COUNT>
0

> <PUBCHEM_BOND_UDEF_STEREO_COUNT>
0

> <PUBCHEM_ISOTOPIC_ATOM_COUNT>
0

> <PUBCHEM_COMPONENT_COUNT>
1

> <PUBCHEM_CACTVS_TAUTO_COUNT>
1

> <PUBCHEM_COORDINATE_TYPE>
1
5
255

> <PUBCHEM_BONDANNOTATIONS>
11  17  8
11  18  8
12  15  8
13  19  8
13  20  8
14  16  8
15  16  8
17  21  8
18  22  8
19  23  8
20  24  8
21  25  8
22  25  8
23  26  8
24  26  8
3  10  8
3  7  8
4  10  8
4  6  8
6  12  8
6  7  8
7  14  8

$$$$
18084039
  -OEChem-11301217232D

 52 55  0     0  0  0  0  0  0999 V2000
    6.6353   -1.0707    0.0000 O   0  0  0  0  0  0  0  0  0  0  0  0
    6.2781    0.6241    0.0000 N   0  0  0  0  0  0  0  0  0  0  0  0
    4.6783   -3.0926    0.0000 N   0  0  0  0  0  0  0  0  0  0  0  0
    5.6103    1.3684    0.0000 C   0  0  0  0  0  0  0  0  0  0  0  0
    4.9889   -0.5326    0.0000 C   0  0  0  0  0  0  0  0  0  0  0  0
    4.6783   -1.4831    0.0000 C   0  0  0  0  0  0  0  0  0  0  0  0
    7.2566    0.8304    0.0000 C   0  0  0  0  0  0  0  0  0  0  0  0
    5.9674   -0.3264    0.0000 C   0  0  0  0  0  0  0  0  0  0  0  0
    4.6318    1.1622    0.0000 C   0  0  0  0  0  0  0  0  0  0  0  0
    3.7320   -1.7879    0.0000 C   0  0  0  0  0  0  0  0  0  0  0  0
    3.7320   -2.7879    0.0000 C   0  0  0  0  0  0  0  0  0  0  0  0
    5.2619   -2.2879    0.0000 C   0  0  0  0  0  0  0  0  0  0  0  0
    7.5673    1.7809    0.0000 C   0  0  0  0  0  0  0  0  0  0  0  0
    3.9639    1.9065    0.0000 C   0  0  0  0  0  0  0  0  0  0  0  0
    2.8660   -1.2879    0.0000 C   0  0  0  0  0  0  0  0  0  0  0  0
    2.8660   -3.2879    0.0000 C   0  0  0  0  0  0  0  0  0  0  0  0
    8.5458    1.9871    0.0000 C   0  0  0  0  0  0  0  0  0  0  0  0
    6.8994    2.5252    0.0000 C   0  0  0  0  0  0  0  0  0  0  0  0
    2.0000   -1.7879    0.0000 C   0  0  0  0  0  0  0  0  0  0  0  0
    4.2746    2.8570    0.0000 C   0  0  0  0  0  0  0  0  0  0  0  0
    2.9854    1.7003    0.0000 C   0  0  0  0  0  0  0  0  0  0  0  0
    2.0000   -2.7879    0.0000 C   0  0  0  0  0  0  0  0  0  0  0  0
    8.8564    2.9376    0.0000 C   0  0  0  0  0  0  0  0  0  0  0  0
    7.2101    3.4757    0.0000 C   0  0  0  0  0  0  0  0  0  0  0  0
    3.6067    3.6013    0.0000 C   0  0  0  0  0  0  0  0  0  0  0  0
    2.3176    2.4446    0.0000 C   0  0  0  0  0  0  0  0  0  0  0  0
    8.1886    3.6819    0.0000 C   0  0  0  0  0  0  0  0  0  0  0  0
    2.6282    3.3951    0.0000 C   0  0  0  0  0  0  0  0  0  0  0  0
    6.1366    1.6961    0.0000 H   0  0  0  0  0  0  0  0  0  0  0  0
    5.3790    1.9437    0.0000 H   0  0  0  0  0  0  0  0  0  0  0  0
    4.9684    0.0871    0.0000 H   0  0  0  0  0  0  0  0  0  0  0  0
    4.3751   -0.4453    0.0000 H   0  0  0  0  0  0  0  0  0  0  0  0
    7.2772    0.2107    0.0000 H   0  0  0  0  0  0  0  0  0  0  0  0
    7.8704    0.7430    0.0000 H   0  0  0  0  0  0  0  0  0  0  0  0
    4.1054    0.8346    0.0000 H   0  0  0  0  0  0  0  0  0  0  0  0
    4.8630    0.5870    0.0000 H   0  0  0  0  0  0  0  0  0  0  0  0
    5.8819   -2.2879    0.0000 H   0  0  0  0  0  0  0  0  0  0  0  0
    4.8709   -3.6819    0.0000 H   0  0  0  0  0  0  0  0  0  0  0  0
    2.8660   -0.6679    0.0000 H   0  0  0  0  0  0  0  0  0  0  0  0
    2.8660   -3.9079    0.0000 H   0  0  0  0  0  0  0  0  0  0  0  0
    8.9598    1.5256    0.0000 H   0  0  0  0  0  0  0  0  0  0  0  0
    6.2928    2.3973    0.0000 H   0  0  0  0  0  0  0  0  0  0  0  0
    1.4631   -1.4779    0.0000 H   0  0  0  0  0  0  0  0  0  0  0  0
    4.8812    2.9849    0.0000 H   0  0  0  0  0  0  0  0  0  0  0  0
    2.7928    1.1110    0.0000 H   0  0  0  0  0  0  0  0  0  0  0  0
    1.4631   -3.0979    0.0000 H   0  0  0  0  0  0  0  0  0  0  0  0
    9.4631    3.0655    0.0000 H   0  0  0  0  0  0  0  0  0  0  0  0
    6.7960    3.9372    0.0000 H   0  0  0  0  0  0  0  0  0  0  0  0
    3.7993    4.1907    0.0000 H   0  0  0  0  0  0  0  0  0  0  0  0
    1.7109    2.3168    0.0000 H   0  0  0  0  0  0  0  0  0  0  0  0
    8.3812    4.2712    0.0000 H   0  0  0  0  0  0  0  0  0  0  0  0
    2.2142    3.8566    0.0000 H   0  0  0  0  0  0  0  0  0  0  0  0
  1  8  2  0  0  0  0
  2  4  1  0  0  0  0
  2  7  1  0  0  0  0
  2  8  1  0  0  0  0
  3 11  1  0  0  0  0
  3 12  1  0  0  0  0
  3 38  1  0  0  0  0
  4  9  1  0  0  0  0
  4 29  1  0  0  0  0
  4 30  1  0  0  0  0
  5  6  1  0  0  0  0
  5  8  1  0  0  0  0
  5 31  1  0  0  0  0
  5 32  1  0  0  0  0
  6 10  1  0  0  0  0
  6 12  2  0  0  0  0
  7 13  1  0  0  0  0
  7 33  1  0  0  0  0
  7 34  1  0  0  0  0
  9 14  1  0  0  0  0
  9 35  1  0  0  0  0
  9 36  1  0  0  0  0
 10 11  1  0  0  0  0
 10 15  2  0  0  0  0
 11 16  2  0  0  0  0
 12 37  1  0  0  0  0
 13 17  2  0  0  0  0
 13 18  1  0  0  0  0
 14 20  2  0  0  0  0
 14 21  1  0  0  0  0
 15 19  1  0  0  0  0
 15 39  1  0  0  0  0
 16 22  1  0  0  0  0
 16 40  1  0  0  0  0
 17 23  1  0  0  0  0
 17 41  1  0  0  0  0
 18 24  2  0  0  0  0
 18 42  1  0  0  0  0
 19 22  2  0  0  0  0
 19 43  1  0  0  0  0
 20 25  1  0  0  0  0
 20 44  1  0  0  0  0
 21 26  2  0  0  0  0
 21 45  1  0  0  0  0
 22 46  1  0  0  0  0
 23 27  2  0  0  0  0
 23 47  1  0  0  0  0
 24 27  1  0  0  0  0
 24 48  1  0  0  0  0
 25 28  2  0  0  0  0
 25 49  1  0  0  0  0
 26 28  1  0  0  0  0
 26 50  1  0  0  0  0
 27 51  1  0  0  0  0
 28 52  1  0  0  0  0
M  END
> <PUBCHEM_COMPOUND_CID>
18084039

> <PUBCHEM_COMPOUND_CANONICALIZED>
1

> <PUBCHEM_CACTVS_COMPLEXITY>
481

> <PUBCHEM_CACTVS_HBOND_ACCEPTOR>
1

> <PUBCHEM_CACTVS_HBOND_DONOR>
1

> <PUBCHEM_CACTVS_ROTATABLE_BOND>
7

> <PUBCHEM_CACTVS_SUBSKEYS>
AAADceB7IAAAAAAAAAAAAAAAAAAAAWAAAAAwYMAAAAAAAFgB9AAAHgAQAAAADAjBngQ8wPPJkACoAzV3VACCgCAxAiAI2aE4ZJgIIPLAlZGEIAhglgDIyAccicCegAAAAAACAAAAAAAAAAQAAAAAAAAAAA==

> <PUBCHEM_IUPAC_OPENEYE_NAME>
N-benzyl-2-(1H-indol-3-yl)-N-(2-phenylethyl)acetamide

> <PUBCHEM_IUPAC_CAS_NAME>
2-(1H-indol-3-yl)-N-(2-phenylethyl)-N-(phenylmethyl)acetamide

> <PUBCHEM_IUPAC_NAME>
N-benzyl-2-(1H-indol-3-yl)-N-(2-phenylethyl)acetamide

> <PUBCHEM_IUPAC_SYSTEMATIC_NAME>
2-(1H-indol-3-yl)-N-(2-phenylethyl)-N-(phenylmethyl)ethanamide

> <PUBCHEM_IUPAC_TRADITIONAL_NAME>
N-benzyl-2-(1H-indol-3-yl)-N-phenethyl-acetamide

> <PUBCHEM_IUPAC_INCHI>
InChI=1S/C25H24N2O/c28-25(17-22-18-26-24-14-8-7-13-23(22)24)27(19-21-11-5-2-6-12-21)16-15-20-9-3-1-4-10-20/h1-14,18,26H,15-17,19H2

> <PUBCHEM_IUPAC_INCHIKEY>
DQOJVEGJFIPNBA-UHFFFAOYSA-N

> <PUBCHEM_XLOGP3>
4.8

> <PUBCHEM_EXACT_MASS>
368.188863

> <PUBCHEM_MOLECULAR_FORMULA>
C25H24N2O

> <PUBCHEM_MOLECULAR_WEIGHT>
368.47086

> <PUBCHEM_OPENEYE_CAN_SMILES>
C1=CC=C(C=C1)CCN(CC2=CC=CC=C2)C(=O)CC3=CNC4=CC=CC=C43

> <PUBCHEM_OPENEYE_ISO_SMILES>
C1=CC=C(C=C1)CCN(CC2=CC=CC=C2)C(=O)CC3=CNC4=CC=CC=C43

> <PUBCHEM_CACTVS_TPSA>
36.1

> <PUBCHEM_MONOISOTOPIC_WEIGHT>
368.188863

> <PUBCHEM_TOTAL_CHARGE>
0

> <PUBCHEM_HEAVY_ATOM_COUNT>
28

> <PUBCHEM_ATOM_DEF_STEREO_COUNT>
0

> <PUBCHEM_ATOM_UDEF_STEREO_COUNT>
0

> <PUBCHEM_BOND_DEF_STEREO_COUNT>
0

> <PUBCHEM_BOND_UDEF_STEREO_COUNT>
0

> <PUBCHEM_ISOTOPIC_ATOM_COUNT>
0

> <PUBCHEM_COMPONENT_COUNT>
1

> <PUBCHEM_CACTVS_TAUTO_COUNT>
1

> <PUBCHEM_COORDINATE_TYPE>
1
5
255

> <PUBCHEM_BONDANNOTATIONS>
10  11  8
10  15  8
11  16  8
13  17  8
13  18  8
14  20  8
14  21  8
15  19  8
16  22  8
17  23  8
18  24  8
19  22  8
20  25  8
21  26  8
23  27  8
24  27  8
25  28  8
26  28  8
3  11  8
3  12  8
6  10  8
6  12  8

$$$$
