38842522
  -OEChem-12041211542D

 51 53  0     0  0  0  0  0  0999 V2000
    6.3301    1.1160    0.0000 O   0  0  0  0  0  0  0  0  0  0  0  0
    2.8660   -2.8840    0.0000 N   0  3  0  0  0  0  0  0  0  0  0  0
    4.5981    1.1160    0.0000 N   0  0  0  0  0  0  0  0  0  0  0  0
    2.3660   -3.7500    0.0000 C   0  0  0  0  0  0  0  0  0  0  0  0
    3.8660   -2.8840    0.0000 C   0  0  0  0  0  0  0  0  0  0  0  0
    4.3660   -3.7500    0.0000 C   0  0  0  0  0  0  0  0  0  0  0  0
    2.8660   -4.6160    0.0000 C   0  0  0  0  0  0  0  0  0  0  0  0
    3.8660   -4.6160    0.0000 C   0  0  0  0  0  0  0  0  0  0  0  0
    2.8660   -1.8840    0.0000 C   0  0  0  0  0  0  0  0  0  0  0  0
    3.7320   -1.3840    0.0000 C   0  0  0  0  0  0  0  0  0  0  0  0
    3.7320   -0.3840    0.0000 C   0  0  0  0  0  0  0  0  0  0  0  0
    4.5981   -1.8840    0.0000 C   0  0  0  0  0  0  0  0  0  0  0  0
    4.5981    0.1160    0.0000 C   0  0  0  0  0  0  0  0  0  0  0  0
    5.4641   -1.3840    0.0000 C   0  0  0  0  0  0  0  0  0  0  0  0
    5.4641   -0.3840    0.0000 C   0  0  0  0  0  0  0  0  0  0  0  0
    5.4641    1.6160    0.0000 C   0  0  0  0  0  0  0  0  0  0  0  0
    5.4641    2.6160    0.0000 C   0  0  0  0  0  0  0  0  0  0  0  0
    6.3301    3.1160    0.0000 C   0  0  0  0  0  0  0  0  0  0  0  0
    6.3301    4.1160    0.0000 C   0  0  0  0  0  0  0  0  0  0  0  0
    7.1962    2.6160    0.0000 C   0  0  0  0  0  0  0  0  0  0  0  0
    8.0622    4.1160    0.0000 C   0  0  0  0  0  0  0  0  0  0  0  0
    7.1962    4.6160    0.0000 C   0  0  0  0  0  0  0  0  0  0  0  0
    8.0622    3.1160    0.0000 C   0  0  0  0  0  0  0  0  0  0  0  0
    8.9282    4.6160    0.0000 C   0  0  0  0  0  0  0  0  0  0  0  0
    2.0000   -2.3840    0.0000 H   0  0  0  0  0  0  0  0  0  0  0  0
    1.8911   -3.3515    0.0000 H   0  0  0  0  0  0  0  0  0  0  0  0
    1.8911   -4.1485    0.0000 H   0  0  0  0  0  0  0  0  0  0  0  0
    4.4486   -2.6719    0.0000 H   0  0  0  0  0  0  0  0  0  0  0  0
    3.7584   -2.2734    0.0000 H   0  0  0  0  0  0  0  0  0  0  0  0
    4.8410   -4.1485    0.0000 H   0  0  0  0  0  0  0  0  0  0  0  0
    4.8410   -3.3515    0.0000 H   0  0  0  0  0  0  0  0  0  0  0  0
    2.2834   -4.8281    0.0000 H   0  0  0  0  0  0  0  0  0  0  0  0
    2.9737   -5.2266    0.0000 H   0  0  0  0  0  0  0  0  0  0  0  0
    3.7584   -5.2266    0.0000 H   0  0  0  0  0  0  0  0  0  0  0  0
    4.4486   -4.8281    0.0000 H   0  0  0  0  0  0  0  0  0  0  0  0
    2.6540   -1.3014    0.0000 H   0  0  0  0  0  0  0  0  0  0  0  0
    2.2554   -1.9916    0.0000 H   0  0  0  0  0  0  0  0  0  0  0  0
    3.1951   -0.0740    0.0000 H   0  0  0  0  0  0  0  0  0  0  0  0
    4.5981   -2.5040    0.0000 H   0  0  0  0  0  0  0  0  0  0  0  0
    6.0010   -1.6940    0.0000 H   0  0  0  0  0  0  0  0  0  0  0  0
    6.0010   -0.0740    0.0000 H   0  0  0  0  0  0  0  0  0  0  0  0
    4.0611    1.4260    0.0000 H   0  0  0  0  0  0  0  0  0  0  0  0
    5.2520    3.1986    0.0000 H   0  0  0  0  0  0  0  0  0  0  0  0
    4.8535    2.5084    0.0000 H   0  0  0  0  0  0  0  0  0  0  0  0
    5.7932    4.4260    0.0000 H   0  0  0  0  0  0  0  0  0  0  0  0
    7.1962    1.9960    0.0000 H   0  0  0  0  0  0  0  0  0  0  0  0
    7.1962    5.2360    0.0000 H   0  0  0  0  0  0  0  0  0  0  0  0
    8.5991    2.8060    0.0000 H   0  0  0  0  0  0  0  0  0  0  0  0
    9.2382    4.0791    0.0000 H   0  0  0  0  0  0  0  0  0  0  0  0
    9.4651    4.9260    0.0000 H   0  0  0  0  0  0  0  0  0  0  0  0
    8.6182    5.1530    0.0000 H   0  0  0  0  0  0  0  0  0  0  0  0
  1 16  2  0  0  0  0
  2  4  1  0  0  0  0
  2  5  1  0  0  0  0
  2  9  1  0  0  0  0
  2 25  1  0  0  0  0
  3 13  1  0  0  0  0
  3 16  1  0  0  0  0
  3 42  1  0  0  0  0
  4  7  1  0  0  0  0
  4 26  1  0  0  0  0
  4 27  1  0  0  0  0
  5  6  1  0  0  0  0
  5 28  1  0  0  0  0
  5 29  1  0  0  0  0
  6  8  1  0  0  0  0
  6 30  1  0  0  0  0
  6 31  1  0  0  0  0
  7  8  1  0  0  0  0
  7 32  1  0  0  0  0
  7 33  1  0  0  0  0
  8 34  1  0  0  0  0
  8 35  1  0  0  0  0
  9 10  1  0  0  0  0
  9 36  1  0  0  0  0
  9 37  1  0  0  0  0
 10 11  2  0  0  0  0
 10 12  1  0  0  0  0
 11 13  1  0  0  0  0
 11 38  1  0  0  0  0
 12 14  2  0  0  0  0
 12 39  1  0  0  0  0
 13 15  2  0  0  0  0
 14 15  1  0  0  0  0
 14 40  1  0  0  0  0
 15 41  1  0  0  0  0
 16 17  1  0  0  0  0
 17 18  1  0  0  0  0
 17 43  1  0  0  0  0
 17 44  1  0  0  0  0
 18 19  2  0  0  0  0
 18 20  1  0  0  0  0
 19 22  1  0  0  0  0
 19 45  1  0  0  0  0
 20 23  2  0  0  0  0
 20 46  1  0  0  0  0
 21 22  2  0  0  0  0
 21 23  1  0  0  0  0
 21 24  1  0  0  0  0
 22 47  1  0  0  0  0
 23 48  1  0  0  0  0
 24 49  1  0  0  0  0
 24 50  1  0  0  0  0
 24 51  1  0  0  0  0
M  CHG  1   2   1
M  END
> <PUBCHEM_COMPOUND_CID>
38842522

> <PUBCHEM_COMPOUND_CANONICALIZED>
1

> <PUBCHEM_CACTVS_COMPLEXITY>
383

> <PUBCHEM_CACTVS_HBOND_ACCEPTOR>
1

> <PUBCHEM_CACTVS_HBOND_DONOR>
2

> <PUBCHEM_CACTVS_ROTATABLE_BOND>
5

> <PUBCHEM_CACTVS_SUBSKEYS>
AAADceB7IAAAAAAAAAAAAAAAAAAAAAAAAAA8YIAAAAAAAAABQAAAHgAQAAAADAjBmAQywIPAAACIAiVSUACCAAAhAgAIiIEIZIgIIDLAlZGEIAhglADIyAcYiMCOQAAAQAAAAACAAACAAAAAAAAAAAAAAA==

> <PUBCHEM_IUPAC_OPENEYE_NAME>
N-[3-(piperidin-1-ium-1-ylmethyl)phenyl]-2-(p-tolyl)acetamide

> <PUBCHEM_IUPAC_CAS_NAME>
2-(4-methylphenyl)-N-[3-(1-piperidin-1-iumylmethyl)phenyl]acetamide

> <PUBCHEM_IUPAC_NAME>
2-(4-methylphenyl)-N-[3-(piperidin-1-ium-1-ylmethyl)phenyl]acetamide

> <PUBCHEM_IUPAC_SYSTEMATIC_NAME>
2-(4-methylphenyl)-N-[3-(piperidin-1-ium-1-ylmethyl)phenyl]ethanamide

> <PUBCHEM_IUPAC_TRADITIONAL_NAME>
N-[3-(piperidin-1-ium-1-ylmethyl)phenyl]-2-(p-tolyl)acetamide

> <PUBCHEM_IUPAC_INCHI>
InChI=1S/C21H26N2O/c1-17-8-10-18(11-9-17)15-21(24)22-20-7-5-6-19(14-20)16-23-12-3-2-4-13-23/h5-11,14H,2-4,12-13,15-16H2,1H3,(H,22,24)/p+1

> <PUBCHEM_IUPAC_INCHIKEY>
DJEMSMWMHIPISE-UHFFFAOYSA-O

> <PUBCHEM_XLOGP3>
4.3

> <PUBCHEM_EXACT_MASS>
323.212338

> <PUBCHEM_MOLECULAR_FORMULA>
C21H27N2O+

> <PUBCHEM_MOLECULAR_WEIGHT>
323.45188

> <PUBCHEM_OPENEYE_CAN_SMILES>
CC1=CC=C(C=C1)CC(=O)NC2=CC=CC(=C2)C[NH+]3CCCCC3

> <PUBCHEM_OPENEYE_ISO_SMILES>
CC1=CC=C(C=C1)CC(=O)NC2=CC=CC(=C2)C[NH+]3CCCCC3

> <PUBCHEM_CACTVS_TPSA>
33.5

> <PUBCHEM_MONOISOTOPIC_WEIGHT>
323.212338

> <PUBCHEM_TOTAL_CHARGE>
1

> <PUBCHEM_HEAVY_ATOM_COUNT>
24

> <PUBCHEM_ATOM_DEF_STEREO_COUNT>
0

> <PUBCHEM_ATOM_UDEF_STEREO_COUNT>
0

> <PUBCHEM_BOND_DEF_STEREO_COUNT>
0

> <PUBCHEM_BOND_UDEF_STEREO_COUNT>
0

> <PUBCHEM_ISOTOPIC_ATOM_COUNT>
0

> <PUBCHEM_COMPONENT_COUNT>
1

> <PUBCHEM_CACTVS_TAUTO_COUNT>
3

> <PUBCHEM_COORDINATE_TYPE>
1
5
255

> <PUBCHEM_BONDANNOTATIONS>
10  11  8
10  12  8
11  13  8
12  14  8
13  15  8
14  15  8
18  19  8
18  20  8
19  22  8
20  23  8
21  22  8
21  23  8

$$$$
