31262866
  -OEChem-12041211422D

 40 42  0     0  0  0  0  0  0999 V2000
    2.8660    1.5194    0.0000 O   0  0  0  0  0  0  0  0  0  0  0  0
    3.7320   -2.9806    0.0000 N   0  0  0  0  0  0  0  0  0  0  0  0
    4.5981    1.5194    0.0000 N   0  0  0  0  0  0  0  0  0  0  0  0
    3.7320    3.0194    0.0000 C   0  0  0  0  0  0  0  0  0  0  0  0
    4.5981    2.5194    0.0000 C   0  0  0  0  0  0  0  0  0  0  0  0
    2.8660    2.5194    0.0000 C   0  0  0  0  0  0  0  0  0  0  0  0
    3.7320   -1.9806    0.0000 C   0  0  0  0  0  0  0  0  0  0  0  0
    3.7320    0.0194    0.0000 C   0  0  0  0  0  0  0  0  0  0  0  0
    3.7320    4.0194    0.0000 C   0  0  0  0  0  0  0  0  0  0  0  0
    3.7320    1.0194    0.0000 C   0  0  0  0  0  0  0  0  0  0  0  0
    5.4641    3.0194    0.0000 C   0  0  0  0  0  0  0  0  0  0  0  0
    4.5981   -1.4806    0.0000 C   0  0  0  0  0  0  0  0  0  0  0  0
    2.8660   -1.4806    0.0000 C   0  0  0  0  0  0  0  0  0  0  0  0
    4.5981   -0.4806    0.0000 C   0  0  0  0  0  0  0  0  0  0  0  0
    2.8660   -0.4806    0.0000 C   0  0  0  0  0  0  0  0  0  0  0  0
    2.0000    3.0194    0.0000 C   0  0  0  0  0  0  0  0  0  0  0  0
    4.5981    4.5194    0.0000 C   0  0  0  0  0  0  0  0  0  0  0  0
    5.4641    4.0194    0.0000 C   0  0  0  0  0  0  0  0  0  0  0  0
    2.9230   -3.5684    0.0000 C   0  0  0  0  0  0  0  0  0  0  0  0
    4.5411   -3.5684    0.0000 C   0  0  0  0  0  0  0  0  0  0  0  0
    3.2320   -4.5194    0.0000 C   0  0  0  0  0  0  0  0  0  0  0  0
    4.2320   -4.5194    0.0000 C   0  0  0  0  0  0  0  0  0  0  0  0
    2.4675    2.0445    0.0000 H   0  0  0  0  0  0  0  0  0  0  0  0
    3.2646    2.0445    0.0000 H   0  0  0  0  0  0  0  0  0  0  0  0
    5.1350    1.2094    0.0000 H   0  0  0  0  0  0  0  0  0  0  0  0
    3.1951    4.3294    0.0000 H   0  0  0  0  0  0  0  0  0  0  0  0
    5.1350   -1.7906    0.0000 H   0  0  0  0  0  0  0  0  0  0  0  0
    2.3291   -1.7906    0.0000 H   0  0  0  0  0  0  0  0  0  0  0  0
    6.0010    2.7094    0.0000 H   0  0  0  0  0  0  0  0  0  0  0  0
    5.1350   -0.1706    0.0000 H   0  0  0  0  0  0  0  0  0  0  0  0
    2.3291   -0.1706    0.0000 H   0  0  0  0  0  0  0  0  0  0  0  0
    2.3100    3.5564    0.0000 H   0  0  0  0  0  0  0  0  0  0  0  0
    1.4631    3.3294    0.0000 H   0  0  0  0  0  0  0  0  0  0  0  0
    1.6900    2.4825    0.0000 H   0  0  0  0  0  0  0  0  0  0  0  0
    4.5981    5.1394    0.0000 H   0  0  0  0  0  0  0  0  0  0  0  0
    6.0010    4.3294    0.0000 H   0  0  0  0  0  0  0  0  0  0  0  0
    2.3334   -3.3768    0.0000 H   0  0  0  0  0  0  0  0  0  0  0  0
    5.1307   -3.3768    0.0000 H   0  0  0  0  0  0  0  0  0  0  0  0
    2.8676   -5.0210    0.0000 H   0  0  0  0  0  0  0  0  0  0  0  0
    4.5965   -5.0210    0.0000 H   0  0  0  0  0  0  0  0  0  0  0  0
  1 10  2  0  0  0  0
  2  7  1  0  0  0  0
  2 19  1  0  0  0  0
  2 20  1  0  0  0  0
  3  5  1  0  0  0  0
  3 10  1  0  0  0  0
  3 25  1  0  0  0  0
  4  5  1  0  0  0  0
  4  6  1  0  0  0  0
  4  9  2  0  0  0  0
  5 11  2  0  0  0  0
  6 16  1  0  0  0  0
  6 23  1  0  0  0  0
  6 24  1  0  0  0  0
  7 12  2  0  0  0  0
  7 13  1  0  0  0  0
  8 10  1  0  0  0  0
  8 14  2  0  0  0  0
  8 15  1  0  0  0  0
  9 17  1  0  0  0  0
  9 26  1  0  0  0  0
 11 18  1  0  0  0  0
 11 29  1  0  0  0  0
 12 14  1  0  0  0  0
 12 27  1  0  0  0  0
 13 15  2  0  0  0  0
 13 28  1  0  0  0  0
 14 30  1  0  0  0  0
 15 31  1  0  0  0  0
 16 32  1  0  0  0  0
 16 33  1  0  0  0  0
 16 34  1  0  0  0  0
 17 18  2  0  0  0  0
 17 35  1  0  0  0  0
 18 36  1  0  0  0  0
 19 21  2  0  0  0  0
 19 37  1  0  0  0  0
 20 22  2  0  0  0  0
 20 38  1  0  0  0  0
 21 22  1  0  0  0  0
 21 39  1  0  0  0  0
 22 40  1  0  0  0  0
M  END
> <PUBCHEM_COMPOUND_CID>
31262866

> <PUBCHEM_COMPOUND_CANONICALIZED>
1

> <PUBCHEM_CACTVS_COMPLEXITY>
356

> <PUBCHEM_CACTVS_HBOND_ACCEPTOR>
1

> <PUBCHEM_CACTVS_HBOND_DONOR>
1

> <PUBCHEM_CACTVS_ROTATABLE_BOND>
4

> <PUBCHEM_CACTVS_SUBSKEYS>
AAADceB7IAAAAAAAAAAAAAAAAAAAAWAAAAAwYAAAAAAAAAAB0AAAHgAQAAAADAjBmgQ+wJPMEACoAjV3VACCgCA1AiAI2CE4ZNgIIPLAlZGEIQhglADIyYcYiYCeCAAAAAACAAAQAAAAAAQAAAAAAAAAAA==

> <PUBCHEM_IUPAC_OPENEYE_NAME>
N-(2-ethylphenyl)-4-pyrrol-1-yl-benzamide

> <PUBCHEM_IUPAC_CAS_NAME>
N-(2-ethylphenyl)-4-(1-pyrrolyl)benzamide

> <PUBCHEM_IUPAC_NAME>
N-(2-ethylphenyl)-4-pyrrol-1-ylbenzamide

> <PUBCHEM_IUPAC_SYSTEMATIC_NAME>
N-(2-ethylphenyl)-4-pyrrol-1-yl-benzamide

> <PUBCHEM_IUPAC_TRADITIONAL_NAME>
N-(2-ethylphenyl)-4-pyrrol-1-yl-benzamide

> <PUBCHEM_IUPAC_INCHI>
InChI=1S/C19H18N2O/c1-2-15-7-3-4-8-18(15)20-19(22)16-9-11-17(12-10-16)21-13-5-6-14-21/h3-14H,2H2,1H3,(H,20,22)

> <PUBCHEM_IUPAC_INCHIKEY>
DUGGTODBVPWFFJ-UHFFFAOYSA-N

> <PUBCHEM_XLOGP3>
3.4

> <PUBCHEM_EXACT_MASS>
290.141913

> <PUBCHEM_MOLECULAR_FORMULA>
C19H18N2O

> <PUBCHEM_MOLECULAR_WEIGHT>
290.35902

> <PUBCHEM_OPENEYE_CAN_SMILES>
CCC1=CC=CC=C1NC(=O)C2=CC=C(C=C2)N3C=CC=C3

> <PUBCHEM_OPENEYE_ISO_SMILES>
CCC1=CC=CC=C1NC(=O)C2=CC=C(C=C2)N3C=CC=C3

> <PUBCHEM_CACTVS_TPSA>
34

> <PUBCHEM_MONOISOTOPIC_WEIGHT>
290.141913

> <PUBCHEM_TOTAL_CHARGE>
0

> <PUBCHEM_HEAVY_ATOM_COUNT>
22

> <PUBCHEM_ATOM_DEF_STEREO_COUNT>
0

> <PUBCHEM_ATOM_UDEF_STEREO_COUNT>
0

> <PUBCHEM_BOND_DEF_STEREO_COUNT>
0

> <PUBCHEM_BOND_UDEF_STEREO_COUNT>
0

> <PUBCHEM_ISOTOPIC_ATOM_COUNT>
0

> <PUBCHEM_COMPONENT_COUNT>
1

> <PUBCHEM_CACTVS_TAUTO_COUNT>
2

> <PUBCHEM_COORDINATE_TYPE>
1
5
255

> <PUBCHEM_BONDANNOTATIONS>
11  18  8
12  14  8
13  15  8
17  18  8
19  21  8
2  19  8
2  20  8
20  22  8
21  22  8
4  5  8
4  9  8
5  11  8
7  12  8
7  13  8
8  14  8
8  15  8
9  17  8

$$$$
