36656859
  -OEChem-12041211512D

 38 39  0     0  0  0  0  0  0999 V2000
    4.5981    3.0950    0.0000 S   0  0  0  0  0  0  0  0  0  0  0  0
    4.5981   -0.9050    0.0000 O   0  0  0  0  0  0  0  0  0  0  0  0
    3.5981    3.0950    0.0000 O   0  0  0  0  0  0  0  0  0  0  0  0
    5.5981    3.0950    0.0000 O   0  0  0  0  0  0  0  0  0  0  0  0
    4.5981   -3.9050    0.0000 O   0  0  0  0  0  0  0  0  0  0  0  0
    2.0000    0.5950    0.0000 O   0  5  0  0  0  0  0  0  0  0  0  0
    2.8660   -0.9050    0.0000 O   0  0  0  0  0  0  0  0  0  0  0  0
    3.7320   -2.4050    0.0000 O   0  0  0  0  0  0  0  0  0  0  0  0
    8.9282   -2.4050    0.0000 O   0  5  0  0  0  0  0  0  0  0  0  0
    8.0622   -3.9050    0.0000 O   0  0  0  0  0  0  0  0  0  0  0  0
    2.8660    0.0950    0.0000 N   0  3  0  0  0  0  0  0  0  0  0  0
    4.5981    4.0950    0.0000 N   0  0  0  0  0  0  0  0  0  0  0  0
    8.0622   -2.9050    0.0000 N   0  3  0  0  0  0  0  0  0  0  0  0
    4.5981    2.0950    0.0000 C   0  0  0  0  0  0  0  0  0  0  0  0
    4.5981    0.0950    0.0000 C   0  0  0  0  0  0  0  0  0  0  0  0
    3.7320    0.5950    0.0000 C   0  0  0  0  0  0  0  0  0  0  0  0
    3.7320    1.5950    0.0000 C   0  0  0  0  0  0  0  0  0  0  0  0
    5.4641   -1.4050    0.0000 C   0  0  0  0  0  0  0  0  0  0  0  0
    5.4641    1.5950    0.0000 C   0  0  0  0  0  0  0  0  0  0  0  0
    5.4641    0.5950    0.0000 C   0  0  0  0  0  0  0  0  0  0  0  0
    5.4641   -2.4050    0.0000 C   0  0  0  0  0  0  0  0  0  0  0  0
    6.3301   -0.9050    0.0000 C   0  0  0  0  0  0  0  0  0  0  0  0
    6.3301   -2.9050    0.0000 C   0  0  0  0  0  0  0  0  0  0  0  0
    7.1962   -2.4050    0.0000 C   0  0  0  0  0  0  0  0  0  0  0  0
    7.1962   -1.4050    0.0000 C   0  0  0  0  0  0  0  0  0  0  0  0
    4.5981   -2.9050    0.0000 C   0  0  0  0  0  0  0  0  0  0  0  0
    5.4641   -4.4050    0.0000 C   0  0  0  0  0  0  0  0  0  0  0  0
    3.1951    1.9050    0.0000 H   0  0  0  0  0  0  0  0  0  0  0  0
    6.0010    1.9050    0.0000 H   0  0  0  0  0  0  0  0  0  0  0  0
    6.0010    0.2850    0.0000 H   0  0  0  0  0  0  0  0  0  0  0  0
    6.3301   -0.2850    0.0000 H   0  0  0  0  0  0  0  0  0  0  0  0
    6.3301   -3.5250    0.0000 H   0  0  0  0  0  0  0  0  0  0  0  0
    7.7331   -1.0950    0.0000 H   0  0  0  0  0  0  0  0  0  0  0  0
    5.1350    4.4050    0.0000 H   0  0  0  0  0  0  0  0  0  0  0  0
    4.0611    4.4050    0.0000 H   0  0  0  0  0  0  0  0  0  0  0  0
    5.1541   -4.9419    0.0000 H   0  0  0  0  0  0  0  0  0  0  0  0
    6.0010   -4.7150    0.0000 H   0  0  0  0  0  0  0  0  0  0  0  0
    5.7741   -3.8681    0.0000 H   0  0  0  0  0  0  0  0  0  0  0  0
  1  3  2  0  0  0  0
  1  4  2  0  0  0  0
  1 12  1  0  0  0  0
  1 14  1  0  0  0  0
  2 15  1  0  0  0  0
  2 18  1  0  0  0  0
  5 26  1  0  0  0  0
  5 27  1  0  0  0  0
  6 11  1  0  0  0  0
  7 11  2  0  0  0  0
  8 26  2  0  0  0  0
  9 13  1  0  0  0  0
 10 13  2  0  0  0  0
 11 16  1  0  0  0  0
 12 34  1  0  0  0  0
 12 35  1  0  0  0  0
 13 24  1  0  0  0  0
 14 17  2  0  0  0  0
 14 19  1  0  0  0  0
 15 16  2  0  0  0  0
 15 20  1  0  0  0  0
 16 17  1  0  0  0  0
 17 28  1  0  0  0  0
 18 21  2  0  0  0  0
 18 22  1  0  0  0  0
 19 20  2  0  0  0  0
 19 29  1  0  0  0  0
 20 30  1  0  0  0  0
 21 23  1  0  0  0  0
 21 26  1  0  0  0  0
 22 25  2  0  0  0  0
 22 31  1  0  0  0  0
 23 24  2  0  0  0  0
 23 32  1  0  0  0  0
 24 25  1  0  0  0  0
 25 33  1  0  0  0  0
 27 36  1  0  0  0  0
 27 37  1  0  0  0  0
 27 38  1  0  0  0  0
M  CHG  4   6  -1   9  -1  11   1  13   1
M  END
> <PUBCHEM_COMPOUND_CID>
36656859

> <PUBCHEM_COMPOUND_CANONICALIZED>
1

> <PUBCHEM_CACTVS_COMPLEXITY>
681

> <PUBCHEM_CACTVS_HBOND_ACCEPTOR>
10

> <PUBCHEM_CACTVS_HBOND_DONOR>
1

> <PUBCHEM_CACTVS_ROTATABLE_BOND>
5

> <PUBCHEM_CACTVS_SUBSKEYS>
AAADccBzPABAAAAAAAAAAAAAAAAAAAAAAAAwYAAAAAAAAAABQAAAHgQUQAAADAyB2AIyz4AQRAKJAiTSS3DCCBAkIgAoiBkHbMoOJzaEtZuDOWTl4FEI6Ye8yCCOAMAAQCAIEAABgACAQBAgAAAAAAAAAA==

> <PUBCHEM_IUPAC_OPENEYE_NAME>
methyl 5-nitro-2-(2-nitro-4-sulfamoyl-phenoxy)benzoate

> <PUBCHEM_IUPAC_CAS_NAME>
5-nitro-2-(2-nitro-4-sulfamoylphenoxy)benzoic acid methyl ester

> <PUBCHEM_IUPAC_NAME>
methyl 5-nitro-2-(2-nitro-4-sulfamoylphenoxy)benzoate

> <PUBCHEM_IUPAC_SYSTEMATIC_NAME>
methyl 5-nitro-2-(2-nitro-4-sulfamoyl-phenoxy)benzoate

> <PUBCHEM_IUPAC_TRADITIONAL_NAME>
5-nitro-2-(2-nitro-4-sulfamoyl-phenoxy)benzoic acid methyl ester

> <PUBCHEM_IUPAC_INCHI>
InChI=1S/C14H11N3O9S/c1-25-14(18)10-6-8(16(19)20)2-4-12(10)26-13-5-3-9(27(15,23)24)7-11(13)17(21)22/h2-7H,1H3,(H2,15,23,24)

> <PUBCHEM_IUPAC_INCHIKEY>
PBAMDARBSRXMRD-UHFFFAOYSA-N

> <PUBCHEM_XLOGP3>
1.6

> <PUBCHEM_EXACT_MASS>
397.0216

> <PUBCHEM_MOLECULAR_FORMULA>
C14H11N3O9S

> <PUBCHEM_MOLECULAR_WEIGHT>
397.31684

> <PUBCHEM_OPENEYE_CAN_SMILES>
COC(=O)C1=C(C=CC(=C1)[N+](=O)[O-])OC2=C(C=C(C=C2)S(=O)(=O)N)[N+](=O)[O-]

> <PUBCHEM_OPENEYE_ISO_SMILES>
COC(=O)C1=C(C=CC(=C1)[N+](=O)[O-])OC2=C(C=C(C=C2)S(=O)(=O)N)[N+](=O)[O-]

> <PUBCHEM_CACTVS_TPSA>
196

> <PUBCHEM_MONOISOTOPIC_WEIGHT>
397.0216

> <PUBCHEM_TOTAL_CHARGE>
0

> <PUBCHEM_HEAVY_ATOM_COUNT>
27

> <PUBCHEM_ATOM_DEF_STEREO_COUNT>
0

> <PUBCHEM_ATOM_UDEF_STEREO_COUNT>
0

> <PUBCHEM_BOND_DEF_STEREO_COUNT>
0

> <PUBCHEM_BOND_UDEF_STEREO_COUNT>
0

> <PUBCHEM_ISOTOPIC_ATOM_COUNT>
0

> <PUBCHEM_COMPONENT_COUNT>
1

> <PUBCHEM_CACTVS_TAUTO_COUNT>
1

> <PUBCHEM_COORDINATE_TYPE>
1
5
255

> <PUBCHEM_BONDANNOTATIONS>
14  17  8
14  19  8
15  16  8
15  20  8
16  17  8
18  21  8
18  22  8
19  20  8
21  23  8
22  25  8
23  24  8
24  25  8

$$$$
