46601650
  -OEChem-12041212092D

 44 46  0     0  0  0  0  0  0999 V2000
    6.3301    1.2327    0.0000 O   0  0  0  0  0  0  0  0  0  0  0  0
    5.4641   -0.2673    0.0000 N   0  0  0  0  0  0  0  0  0  0  0  0
    3.7320   -0.2673    0.0000 C   0  0  0  0  0  0  0  0  0  0  0  0
    2.8660    0.2327    0.0000 C   0  0  0  0  0  0  0  0  0  0  0  0
    3.7320   -1.2673    0.0000 C   0  0  0  0  0  0  0  0  0  0  0  0
    2.0000   -0.2673    0.0000 C   0  0  0  0  0  0  0  0  0  0  0  0
    2.8660   -1.7673    0.0000 C   0  0  0  0  0  0  0  0  0  0  0  0
    2.0000   -1.2673    0.0000 C   0  0  0  0  0  0  0  0  0  0  0  0
    4.5981    0.2327    0.0000 C   0  0  0  0  0  0  0  0  0  0  0  0
    6.3301    0.2327    0.0000 C   0  0  0  0  0  0  0  0  0  0  0  0
    7.1962   -0.2673    0.0000 C   0  0  0  0  0  0  0  0  0  0  0  0
    8.0622    0.2327    0.0000 C   0  0  0  0  0  0  0  0  0  0  0  0
    8.9282   -0.2673    0.0000 C   0  0  0  0  0  0  0  0  0  0  0  0
    9.7942    0.2327    0.0000 C   0  0  0  0  0  0  0  0  0  0  0  0
    8.0622    1.2327    0.0000 C   0  0  0  0  0  0  0  0  0  0  0  0
    9.7942    1.2327    0.0000 C   0  0  0  0  0  0  0  0  0  0  0  0
    8.9282    1.7327    0.0000 C   0  0  0  0  0  0  0  0  0  0  0  0
   10.6882   -0.3020    0.0000 C   0  0  0  0  0  0  0  0  0  0  0  0
   10.6882    1.7673    0.0000 C   0  0  0  0  0  0  0  0  0  0  0  0
   11.5942    0.2119    0.0000 C   0  0  0  0  0  0  0  0  0  0  0  0
   11.5942    1.2535    0.0000 C   0  0  0  0  0  0  0  0  0  0  0  0
    3.7320    0.3527    0.0000 H   0  0  0  0  0  0  0  0  0  0  0  0
    3.2646    0.7076    0.0000 H   0  0  0  0  0  0  0  0  0  0  0  0
    2.4675    0.7076    0.0000 H   0  0  0  0  0  0  0  0  0  0  0  0
    3.9441   -1.8499    0.0000 H   0  0  0  0  0  0  0  0  0  0  0  0
    4.3426   -1.1597    0.0000 H   0  0  0  0  0  0  0  0  0  0  0  0
    1.7880    0.3153    0.0000 H   0  0  0  0  0  0  0  0  0  0  0  0
    1.3894   -0.3750    0.0000 H   0  0  0  0  0  0  0  0  0  0  0  0
    2.4675   -2.2423    0.0000 H   0  0  0  0  0  0  0  0  0  0  0  0
    3.2646   -2.2423    0.0000 H   0  0  0  0  0  0  0  0  0  0  0  0
    1.3894   -1.1597    0.0000 H   0  0  0  0  0  0  0  0  0  0  0  0
    1.7880   -1.8499    0.0000 H   0  0  0  0  0  0  0  0  0  0  0  0
    4.9966    0.7076    0.0000 H   0  0  0  0  0  0  0  0  0  0  0  0
    4.1996    0.7076    0.0000 H   0  0  0  0  0  0  0  0  0  0  0  0
    5.4641   -0.8873    0.0000 H   0  0  0  0  0  0  0  0  0  0  0  0
    6.7976   -0.7423    0.0000 H   0  0  0  0  0  0  0  0  0  0  0  0
    7.5947   -0.7423    0.0000 H   0  0  0  0  0  0  0  0  0  0  0  0
    8.9282   -0.8873    0.0000 H   0  0  0  0  0  0  0  0  0  0  0  0
    7.5252    1.5427    0.0000 H   0  0  0  0  0  0  0  0  0  0  0  0
    8.9282    2.3527    0.0000 H   0  0  0  0  0  0  0  0  0  0  0  0
   10.6810   -0.9220    0.0000 H   0  0  0  0  0  0  0  0  0  0  0  0
   10.6810    2.3873    0.0000 H   0  0  0  0  0  0  0  0  0  0  0  0
   12.1300   -0.1002    0.0000 H   0  0  0  0  0  0  0  0  0  0  0  0
   12.1300    1.5656    0.0000 H   0  0  0  0  0  0  0  0  0  0  0  0
  1 10  2  0  0  0  0
  2  9  1  0  0  0  0
  2 10  1  0  0  0  0
  2 35  1  0  0  0  0
  3  4  1  0  0  0  0
  3  5  1  0  0  0  0
  3  9  1  0  0  0  0
  3 22  1  0  0  0  0
  4  6  1  0  0  0  0
  4 23  1  0  0  0  0
  4 24  1  0  0  0  0
  5  7  1  0  0  0  0
  5 25  1  0  0  0  0
  5 26  1  0  0  0  0
  6  8  1  0  0  0  0
  6 27  1  0  0  0  0
  6 28  1  0  0  0  0
  7  8  1  0  0  0  0
  7 29  1  0  0  0  0
  7 30  1  0  0  0  0
  8 31  1  0  0  0  0
  8 32  1  0  0  0  0
  9 33  1  0  0  0  0
  9 34  1  0  0  0  0
 10 11  1  0  0  0  0
 11 12  1  0  0  0  0
 11 36  1  0  0  0  0
 11 37  1  0  0  0  0
 12 13  2  0  0  0  0
 12 15  1  0  0  0  0
 13 14  1  0  0  0  0
 13 38  1  0  0  0  0
 14 16  1  0  0  0  0
 14 18  2  0  0  0  0
 15 17  2  0  0  0  0
 15 39  1  0  0  0  0
 16 17  1  0  0  0  0
 16 19  2  0  0  0  0
 17 40  1  0  0  0  0
 18 20  1  0  0  0  0
 18 41  1  0  0  0  0
 19 21  1  0  0  0  0
 19 42  1  0  0  0  0
 20 21  2  0  0  0  0
 20 43  1  0  0  0  0
 21 44  1  0  0  0  0
M  END
> <PUBCHEM_COMPOUND_CID>
46601650

> <PUBCHEM_COMPOUND_CANONICALIZED>
1

> <PUBCHEM_CACTVS_COMPLEXITY>
335

> <PUBCHEM_CACTVS_HBOND_ACCEPTOR>
1

> <PUBCHEM_CACTVS_HBOND_DONOR>
1

> <PUBCHEM_CACTVS_ROTATABLE_BOND>
4

> <PUBCHEM_CACTVS_SUBSKEYS>
AAADceB6IAAAAAAAAAAAAAAAAAAAAAAAAAAwYMAAAAAAAADBUAAAHgAQAAAADQDBmAQwAMLAAACIAiFSEAACAAAgAAAIiIEIAIgIIDKAlRGEIAAglgCIiAcYiMCOwAACAAAQAACAAAQAACAAAAAAAAAAAA==

> <PUBCHEM_IUPAC_OPENEYE_NAME>
N-(cyclohexylmethyl)-2-(2-naphthyl)acetamide

> <PUBCHEM_IUPAC_CAS_NAME>
N-(cyclohexylmethyl)-2-(2-naphthalenyl)acetamide

> <PUBCHEM_IUPAC_NAME>
N-(cyclohexylmethyl)-2-naphthalen-2-ylacetamide

> <PUBCHEM_IUPAC_SYSTEMATIC_NAME>
N-(cyclohexylmethyl)-2-naphthalen-2-yl-ethanamide

> <PUBCHEM_IUPAC_TRADITIONAL_NAME>
N-(cyclohexylmethyl)-2-(2-naphthyl)acetamide

> <PUBCHEM_IUPAC_INCHI>
InChI=1S/C19H23NO/c21-19(20-14-15-6-2-1-3-7-15)13-16-10-11-17-8-4-5-9-18(17)12-16/h4-5,8-12,15H,1-3,6-7,13-14H2,(H,20,21)

> <PUBCHEM_IUPAC_INCHIKEY>
FZCOQTBUFKANOM-UHFFFAOYSA-N

> <PUBCHEM_XLOGP3>
4.9

> <PUBCHEM_EXACT_MASS>
281.177964

> <PUBCHEM_MOLECULAR_FORMULA>
C19H23NO

> <PUBCHEM_MOLECULAR_WEIGHT>
281.39202

> <PUBCHEM_OPENEYE_CAN_SMILES>
C1CCC(CC1)CNC(=O)CC2=CC3=CC=CC=C3C=C2

> <PUBCHEM_OPENEYE_ISO_SMILES>
C1CCC(CC1)CNC(=O)CC2=CC3=CC=CC=C3C=C2

> <PUBCHEM_CACTVS_TPSA>
29.1

> <PUBCHEM_MONOISOTOPIC_WEIGHT>
281.177964

> <PUBCHEM_TOTAL_CHARGE>
0

> <PUBCHEM_HEAVY_ATOM_COUNT>
21

> <PUBCHEM_ATOM_DEF_STEREO_COUNT>
0

> <PUBCHEM_ATOM_UDEF_STEREO_COUNT>
0

> <PUBCHEM_BOND_DEF_STEREO_COUNT>
0

> <PUBCHEM_BOND_UDEF_STEREO_COUNT>
0

> <PUBCHEM_ISOTOPIC_ATOM_COUNT>
0

> <PUBCHEM_COMPONENT_COUNT>
1

> <PUBCHEM_CACTVS_TAUTO_COUNT>
2

> <PUBCHEM_COORDINATE_TYPE>
1
5
255

> <PUBCHEM_BONDANNOTATIONS>
12  13  8
12  15  8
13  14  8
14  16  8
14  18  8
15  17  8
16  17  8
16  19  8
18  20  8
19  21  8
20  21  8

$$$$
46607785
  -OEChem-12041212092D

 50 50  0     0  0  0  0  0  0999 V2000
    2.0000    0.9330    0.0000 F   0  0  0  0  0  0  0  0  0  0  0  0
    3.3660    0.5670    0.0000 F   0  0  0  0  0  0  0  0  0  0  0  0
    2.3660    2.2990    0.0000 F   0  0  0  0  0  0  0  0  0  0  0  0
    4.5981    5.4330    0.0000 F   0  0  0  0  0  0  0  0  0  0  0  0
    5.5981    4.4330    0.0000 F   0  0  0  0  0  0  0  0  0  0  0  0
    3.5981    4.4330    0.0000 F   0  0  0  0  0  0  0  0  0  0  0  0
    9.7942   -2.5670    0.0000 O   0  0  0  0  0  0  0  0  0  0  0  0
    6.3301    0.4330    0.0000 O   0  0  0  0  0  0  0  0  0  0  0  0
    6.3301   -1.5670    0.0000 O   0  0  0  0  0  0  0  0  0  0  0  0
    7.1962    1.9330    0.0000 O   0  0  0  0  0  0  0  0  0  0  0  0
    8.9282   -4.0670    0.0000 N   0  0  0  0  0  0  0  0  0  0  0  0
    8.0622   -1.5670    0.0000 N   0  0  0  0  0  0  0  0  0  0  0  0
    9.7942   -4.5670    0.0000 C   0  0  0  0  0  0  0  0  0  0  0  0
   10.6603   -5.0670    0.0000 C   0  0  0  0  0  0  0  0  0  0  0  0
    9.2942   -5.4330    0.0000 C   0  0  0  0  0  0  0  0  0  0  0  0
   10.2942   -3.7010    0.0000 C   0  0  0  0  0  0  0  0  0  0  0  0
    8.9282   -3.0670    0.0000 C   0  0  0  0  0  0  0  0  0  0  0  0
    8.0622   -2.5670    0.0000 C   0  0  0  0  0  0  0  0  0  0  0  0
    7.1962   -1.0670    0.0000 C   0  0  0  0  0  0  0  0  0  0  0  0
    8.9282   -1.0670    0.0000 C   0  0  0  0  0  0  0  0  0  0  0  0
    7.1962   -0.0670    0.0000 C   0  0  0  0  0  0  0  0  0  0  0  0
    5.4641    1.9330    0.0000 C   0  0  0  0  0  0  0  0  0  0  0  0
    3.7320    1.9330    0.0000 C   0  0  0  0  0  0  0  0  0  0  0  0
    4.5981    3.4330    0.0000 C   0  0  0  0  0  0  0  0  0  0  0  0
    5.4641    2.9330    0.0000 C   0  0  0  0  0  0  0  0  0  0  0  0
    4.5981    1.4330    0.0000 C   0  0  0  0  0  0  0  0  0  0  0  0
    3.7320    2.9330    0.0000 C   0  0  0  0  0  0  0  0  0  0  0  0
    6.3301    1.4330    0.0000 C   0  0  0  0  0  0  0  0  0  0  0  0
    2.8660    1.4330    0.0000 C   0  0  0  0  0  0  0  0  0  0  0  0
    4.5981    4.4330    0.0000 C   0  0  0  0  0  0  0  0  0  0  0  0
    8.3913   -4.3770    0.0000 H   0  0  0  0  0  0  0  0  0  0  0  0
   10.8312   -4.0110    0.0000 H   0  0  0  0  0  0  0  0  0  0  0  0
   10.3503   -5.6039    0.0000 H   0  0  0  0  0  0  0  0  0  0  0  0
   11.1972   -5.3770    0.0000 H   0  0  0  0  0  0  0  0  0  0  0  0
   10.9703   -4.5300    0.0000 H   0  0  0  0  0  0  0  0  0  0  0  0
    8.7573   -5.1230    0.0000 H   0  0  0  0  0  0  0  0  0  0  0  0
    8.9842   -5.9700    0.0000 H   0  0  0  0  0  0  0  0  0  0  0  0
    9.8312   -5.7430    0.0000 H   0  0  0  0  0  0  0  0  0  0  0  0
   10.6042   -3.1640    0.0000 H   0  0  0  0  0  0  0  0  0  0  0  0
    9.7573   -3.3910    0.0000 H   0  0  0  0  0  0  0  0  0  0  0  0
    7.4516   -2.4593    0.0000 H   0  0  0  0  0  0  0  0  0  0  0  0
    7.8501   -3.1496    0.0000 H   0  0  0  0  0  0  0  0  0  0  0  0
    9.2382   -1.6039    0.0000 H   0  0  0  0  0  0  0  0  0  0  0  0
    9.4651   -0.7570    0.0000 H   0  0  0  0  0  0  0  0  0  0  0  0
    8.6182   -0.5301    0.0000 H   0  0  0  0  0  0  0  0  0  0  0  0
    7.8067   -0.1746    0.0000 H   0  0  0  0  0  0  0  0  0  0  0  0
    7.4082    0.5156    0.0000 H   0  0  0  0  0  0  0  0  0  0  0  0
    6.0010    3.2430    0.0000 H   0  0  0  0  0  0  0  0  0  0  0  0
    4.5981    0.8130    0.0000 H   0  0  0  0  0  0  0  0  0  0  0  0
    3.1951    3.2430    0.0000 H   0  0  0  0  0  0  0  0  0  0  0  0
  1 29  1  0  0  0  0
  2 29  1  0  0  0  0
  3 29  1  0  0  0  0
  4 30  1  0  0  0  0
  5 30  1  0  0  0  0
  6 30  1  0  0  0  0
  7 17  2  0  0  0  0
  8 21  1  0  0  0  0
  8 28  1  0  0  0  0
  9 19  2  0  0  0  0
 10 28  2  0  0  0  0
 11 13  1  0  0  0  0
 11 17  1  0  0  0  0
 11 31  1  0  0  0  0
 12 18  1  0  0  0  0
 12 19  1  0  0  0  0
 12 20  1  0  0  0  0
 13 14  1  0  0  0  0
 13 15  1  0  0  0  0
 13 16  1  0  0  0  0
 14 33  1  0  0  0  0
 14 34  1  0  0  0  0
 14 35  1  0  0  0  0
 15 36  1  0  0  0  0
 15 37  1  0  0  0  0
 15 38  1  0  0  0  0
 16 32  1  0  0  0  0
 16 39  1  0  0  0  0
 16 40  1  0  0  0  0
 17 18  1  0  0  0  0
 18 41  1  0  0  0  0
 18 42  1  0  0  0  0
 19 21  1  0  0  0  0
 20 43  1  0  0  0  0
 20 44  1  0  0  0  0
 20 45  1  0  0  0  0
 21 46  1  0  0  0  0
 21 47  1  0  0  0  0
 22 25  2  0  0  0  0
 22 26  1  0  0  0  0
 22 28  1  0  0  0  0
 23 26  2  0  0  0  0
 23 27  1  0  0  0  0
 23 29  1  0  0  0  0
 24 25  1  0  0  0  0
 24 27  2  0  0  0  0
 24 30  1  0  0  0  0
 25 48  1  0  0  0  0
 26 49  1  0  0  0  0
 27 50  1  0  0  0  0
M  END
> <PUBCHEM_COMPOUND_CID>
46607785

> <PUBCHEM_COMPOUND_CANONICALIZED>
1

> <PUBCHEM_CACTVS_COMPLEXITY>
620

> <PUBCHEM_CACTVS_HBOND_ACCEPTOR>
10

> <PUBCHEM_CACTVS_HBOND_DONOR>
1

> <PUBCHEM_CACTVS_ROTATABLE_BOND>
7

> <PUBCHEM_CACTVS_SUBSKEYS>
AAADceB7OcAAAAAAAAAAAAAAAAAAAAAAAAAwAAAAAAAAAAABAAAAHwAQAAAADIjhmBYyCIPABACIAiHSGAICAAAkAAAAiAHICMgKZjKANTyTMQAk1gGYqYeIyGCOAAACAAAAAAAAAAQAAAAAAAAAAAAAAA==

> <PUBCHEM_IUPAC_OPENEYE_NAME>
[2-[[2-(tert-butylamino)-2-oxo-ethyl]-methyl-amino]-2-oxo-ethyl] 3,5-bis(trifluoromethyl)benzoate

> <PUBCHEM_IUPAC_CAS_NAME>
3,5-bis(trifluoromethyl)benzoic acid [2-[[2-(tert-butylamino)-2-oxoethyl]-methylamino]-2-oxoethyl] ester

> <PUBCHEM_IUPAC_NAME>
[2-[[2-(tert-butylamino)-2-oxoethyl]-methylamino]-2-oxoethyl] 3,5-bis(trifluoromethyl)benzoate

> <PUBCHEM_IUPAC_SYSTEMATIC_NAME>
[2-[[2-(tert-butylamino)-2-oxidanylidene-ethyl]-methyl-amino]-2-oxidanylidene-ethyl] 3,5-bis(trifluoromethyl)benzoate

> <PUBCHEM_IUPAC_TRADITIONAL_NAME>
3,5-bis(trifluoromethyl)benzoic acid [2-[[2-(tert-butylamino)-2-keto-ethyl]-methyl-amino]-2-keto-ethyl] ester

> <PUBCHEM_IUPAC_INCHI>
InChI=1S/C18H20F6N2O4/c1-16(2,3)25-13(27)8-26(4)14(28)9-30-15(29)10-5-11(17(19,20)21)7-12(6-10)18(22,23)24/h5-7H,8-9H2,1-4H3,(H,25,27)

> <PUBCHEM_IUPAC_INCHIKEY>
JHOCFKFVQHGQTQ-UHFFFAOYSA-N

> <PUBCHEM_XLOGP3>
3.2

> <PUBCHEM_EXACT_MASS>
442.132726

> <PUBCHEM_MOLECULAR_FORMULA>
C18H20F6N2O4

> <PUBCHEM_MOLECULAR_WEIGHT>
442.352819

> <PUBCHEM_OPENEYE_CAN_SMILES>
CC(C)(C)NC(=O)CN(C)C(=O)COC(=O)C1=CC(=CC(=C1)C(F)(F)F)C(F)(F)F

> <PUBCHEM_OPENEYE_ISO_SMILES>
CC(C)(C)NC(=O)CN(C)C(=O)COC(=O)C1=CC(=CC(=C1)C(F)(F)F)C(F)(F)F

> <PUBCHEM_CACTVS_TPSA>
75.7

> <PUBCHEM_MONOISOTOPIC_WEIGHT>
442.132726

> <PUBCHEM_TOTAL_CHARGE>
0

> <PUBCHEM_HEAVY_ATOM_COUNT>
30

> <PUBCHEM_ATOM_DEF_STEREO_COUNT>
0

> <PUBCHEM_ATOM_UDEF_STEREO_COUNT>
0

> <PUBCHEM_BOND_DEF_STEREO_COUNT>
0

> <PUBCHEM_BOND_UDEF_STEREO_COUNT>
0

> <PUBCHEM_ISOTOPIC_ATOM_COUNT>
0

> <PUBCHEM_COMPONENT_COUNT>
1

> <PUBCHEM_CACTVS_TAUTO_COUNT>
2

> <PUBCHEM_COORDINATE_TYPE>
1
5
255

> <PUBCHEM_BONDANNOTATIONS>
22  25  8
22  26  8
23  26  8
23  27  8
24  25  8
24  27  8

$$$$
