25353177
  -OEChem-11301217372D

 35 37  0     0  0  0  0  0  0999 V2000
    5.5981    0.9157    0.0000 O   0  0  0  0  0  0  0  0  0  0  0  0
    4.7320   -0.5843    0.0000 N   0  0  0  0  0  0  0  0  0  0  0  0
    3.0000   -0.5843    0.0000 C   0  0  0  0  0  0  0  0  0  0  0  0
    2.0000   -0.5843    0.0000 C   0  0  0  0  0  0  0  0  0  0  0  0
    2.5000   -1.4503    0.0000 C   0  0  0  0  0  0  0  0  0  0  0  0
    3.8660   -0.0843    0.0000 C   0  0  0  0  0  0  0  0  0  0  0  0
    5.5981   -0.0843    0.0000 C   0  0  0  0  0  0  0  0  0  0  0  0
    6.4641   -0.5843    0.0000 C   0  0  0  0  0  0  0  0  0  0  0  0
    7.3301   -0.0843    0.0000 C   0  0  0  0  0  0  0  0  0  0  0  0
    8.1962   -0.5843    0.0000 C   0  0  0  0  0  0  0  0  0  0  0  0
    9.0622   -0.0843    0.0000 C   0  0  0  0  0  0  0  0  0  0  0  0
    7.3301    0.9157    0.0000 C   0  0  0  0  0  0  0  0  0  0  0  0
    9.0622    0.9157    0.0000 C   0  0  0  0  0  0  0  0  0  0  0  0
    8.1962    1.4157    0.0000 C   0  0  0  0  0  0  0  0  0  0  0  0
    9.9561   -0.6190    0.0000 C   0  0  0  0  0  0  0  0  0  0  0  0
    9.9561    1.4503    0.0000 C   0  0  0  0  0  0  0  0  0  0  0  0
   10.8622   -0.1051    0.0000 C   0  0  0  0  0  0  0  0  0  0  0  0
   10.8622    0.9365    0.0000 C   0  0  0  0  0  0  0  0  0  0  0  0
    2.8395    0.0146    0.0000 H   0  0  0  0  0  0  0  0  0  0  0  0
    1.8923    0.0263    0.0000 H   0  0  0  0  0  0  0  0  0  0  0  0
    1.4174   -0.7964    0.0000 H   0  0  0  0  0  0  0  0  0  0  0  0
    2.0250   -1.8489    0.0000 H   0  0  0  0  0  0  0  0  0  0  0  0
    2.9750   -1.8489    0.0000 H   0  0  0  0  0  0  0  0  0  0  0  0
    4.2646    0.3906    0.0000 H   0  0  0  0  0  0  0  0  0  0  0  0
    3.4675    0.3906    0.0000 H   0  0  0  0  0  0  0  0  0  0  0  0
    4.7320   -1.2043    0.0000 H   0  0  0  0  0  0  0  0  0  0  0  0
    6.0656   -1.0593    0.0000 H   0  0  0  0  0  0  0  0  0  0  0  0
    6.8626   -1.0593    0.0000 H   0  0  0  0  0  0  0  0  0  0  0  0
    8.1962   -1.2043    0.0000 H   0  0  0  0  0  0  0  0  0  0  0  0
    6.7932    1.2257    0.0000 H   0  0  0  0  0  0  0  0  0  0  0  0
    8.1962    2.0357    0.0000 H   0  0  0  0  0  0  0  0  0  0  0  0
    9.9490   -1.2389    0.0000 H   0  0  0  0  0  0  0  0  0  0  0  0
    9.9490    2.0703    0.0000 H   0  0  0  0  0  0  0  0  0  0  0  0
   11.3979   -0.4172    0.0000 H   0  0  0  0  0  0  0  0  0  0  0  0
   11.3979    1.2486    0.0000 H   0  0  0  0  0  0  0  0  0  0  0  0
  1  7  2  0  0  0  0
  2  6  1  0  0  0  0
  2  7  1  0  0  0  0
  2 26  1  0  0  0  0
  3  4  1  0  0  0  0
  3  5  1  0  0  0  0
  3  6  1  0  0  0  0
  3 19  1  0  0  0  0
  4  5  1  0  0  0  0
  4 20  1  0  0  0  0
  4 21  1  0  0  0  0
  5 22  1  0  0  0  0
  5 23  1  0  0  0  0
  6 24  1  0  0  0  0
  6 25  1  0  0  0  0
  7  8  1  0  0  0  0
  8  9  1  0  0  0  0
  8 27  1  0  0  0  0
  8 28  1  0  0  0  0
  9 10  2  0  0  0  0
  9 12  1  0  0  0  0
 10 11  1  0  0  0  0
 10 29  1  0  0  0  0
 11 13  1  0  0  0  0
 11 15  2  0  0  0  0
 12 14  2  0  0  0  0
 12 30  1  0  0  0  0
 13 14  1  0  0  0  0
 13 16  2  0  0  0  0
 14 31  1  0  0  0  0
 15 17  1  0  0  0  0
 15 32  1  0  0  0  0
 16 18  1  0  0  0  0
 16 33  1  0  0  0  0
 17 18  2  0  0  0  0
 17 34  1  0  0  0  0
 18 35  1  0  0  0  0
M  END
> <PUBCHEM_COMPOUND_CID>
25353177

> <PUBCHEM_COMPOUND_CANONICALIZED>
1

> <PUBCHEM_CACTVS_COMPLEXITY>
298

> <PUBCHEM_CACTVS_HBOND_ACCEPTOR>
1

> <PUBCHEM_CACTVS_HBOND_DONOR>
1

> <PUBCHEM_CACTVS_ROTATABLE_BOND>
4

> <PUBCHEM_CACTVS_SUBSKEYS>
AAADceB6IAAAAAAAAAAAAAAAGAAAAAAAAAAwYAAAAAAAAADBUAAAHgAQAAAADQDBmAQwAMLAAACIAiFSEAACAAAgAAAIiIEIAIgIIDKAlRGEIAAglgCIiAcYiMCOwAACAAAQAACAAAQAACAAAAAAAAAAAA==

> <PUBCHEM_IUPAC_OPENEYE_NAME>
N-(cyclopropylmethyl)-2-(2-naphthyl)acetamide

> <PUBCHEM_IUPAC_CAS_NAME>
N-(cyclopropylmethyl)-2-(2-naphthalenyl)acetamide

> <PUBCHEM_IUPAC_NAME>
N-(cyclopropylmethyl)-2-naphthalen-2-ylacetamide

> <PUBCHEM_IUPAC_SYSTEMATIC_NAME>
N-(cyclopropylmethyl)-2-naphthalen-2-yl-ethanamide

> <PUBCHEM_IUPAC_TRADITIONAL_NAME>
N-(cyclopropylmethyl)-2-(2-naphthyl)acetamide

> <PUBCHEM_IUPAC_INCHI>
InChI=1S/C16H17NO/c18-16(17-11-12-5-6-12)10-13-7-8-14-3-1-2-4-15(14)9-13/h1-4,7-9,12H,5-6,10-11H2,(H,17,18)

> <PUBCHEM_IUPAC_INCHIKEY>
MDITYNVHBVVDOW-UHFFFAOYSA-N

> <PUBCHEM_XLOGP3>
3.3

> <PUBCHEM_EXACT_MASS>
239.131014

> <PUBCHEM_MOLECULAR_FORMULA>
C16H17NO

> <PUBCHEM_MOLECULAR_WEIGHT>
239.31228

> <PUBCHEM_OPENEYE_CAN_SMILES>
C1CC1CNC(=O)CC2=CC3=CC=CC=C3C=C2

> <PUBCHEM_OPENEYE_ISO_SMILES>
C1CC1CNC(=O)CC2=CC3=CC=CC=C3C=C2

> <PUBCHEM_CACTVS_TPSA>
29.1

> <PUBCHEM_MONOISOTOPIC_WEIGHT>
239.131014

> <PUBCHEM_TOTAL_CHARGE>
0

> <PUBCHEM_HEAVY_ATOM_COUNT>
18

> <PUBCHEM_ATOM_DEF_STEREO_COUNT>
0

> <PUBCHEM_ATOM_UDEF_STEREO_COUNT>
0

> <PUBCHEM_BOND_DEF_STEREO_COUNT>
0

> <PUBCHEM_BOND_UDEF_STEREO_COUNT>
0

> <PUBCHEM_ISOTOPIC_ATOM_COUNT>
0

> <PUBCHEM_COMPONENT_COUNT>
1

> <PUBCHEM_CACTVS_TAUTO_COUNT>
2

> <PUBCHEM_COORDINATE_TYPE>
1
5
255

> <PUBCHEM_BONDANNOTATIONS>
10  11  8
11  13  8
11  15  8
12  14  8
13  14  8
13  16  8
15  17  8
16  18  8
17  18  8
9  10  8
9  12  8

$$$$
25353654
  -OEChem-11301217372D

 44 47  0     0  0  0  0  0  0999 V2000
    7.1962   -0.8512    0.0000 O   0  0  0  0  0  0  0  0  0  0  0  0
    4.5981    2.6488    0.0000 N   0  0  0  0  0  0  0  0  0  0  0  0
    5.4641   -0.8512    0.0000 N   0  0  0  0  0  0  0  0  0  0  0  0
    4.5981   -2.3512    0.0000 C   0  0  0  0  0  0  0  0  0  0  0  0
    5.4641   -1.8512    0.0000 C   0  0  0  0  0  0  0  0  0  0  0  0
    5.4641    2.1488    0.0000 C   0  0  0  0  0  0  0  0  0  0  0  0
    6.3301    0.6488    0.0000 C   0  0  0  0  0  0  0  0  0  0  0  0
    3.7320   -1.8512    0.0000 C   0  0  0  0  0  0  0  0  0  0  0  0
    5.4641    1.1488    0.0000 C   0  0  0  0  0  0  0  0  0  0  0  0
    6.3301   -0.3512    0.0000 C   0  0  0  0  0  0  0  0  0  0  0  0
    4.5981   -3.3512    0.0000 C   0  0  0  0  0  0  0  0  0  0  0  0
    6.3301    2.6488    0.0000 C   0  0  0  0  0  0  0  0  0  0  0  0
    6.3301   -2.3512    0.0000 C   0  0  0  0  0  0  0  0  0  0  0  0
    7.1962    1.1488    0.0000 C   0  0  0  0  0  0  0  0  0  0  0  0
    7.1962    2.1488    0.0000 C   0  0  0  0  0  0  0  0  0  0  0  0
    4.4936    3.6433    0.0000 C   0  0  0  0  0  0  0  0  0  0  0  0
    3.6845    2.2420    0.0000 C   0  0  0  0  0  0  0  0  0  0  0  0
    3.7320   -0.8512    0.0000 C   0  0  0  0  0  0  0  0  0  0  0  0
    2.8660   -2.3512    0.0000 C   0  0  0  0  0  0  0  0  0  0  0  0
    5.4641   -3.8512    0.0000 C   0  0  0  0  0  0  0  0  0  0  0  0
    6.3301   -3.3512    0.0000 C   0  0  0  0  0  0  0  0  0  0  0  0
    3.0154    2.9852    0.0000 C   0  0  0  0  0  0  0  0  0  0  0  0
    3.5154    3.8512    0.0000 C   0  0  0  0  0  0  0  0  0  0  0  0
    2.8660   -0.3512    0.0000 C   0  0  0  0  0  0  0  0  0  0  0  0
    2.0000   -1.8512    0.0000 C   0  0  0  0  0  0  0  0  0  0  0  0
    2.0000   -0.8512    0.0000 C   0  0  0  0  0  0  0  0  0  0  0  0
    4.9272    0.8388    0.0000 H   0  0  0  0  0  0  0  0  0  0  0  0
    4.9272   -0.5412    0.0000 H   0  0  0  0  0  0  0  0  0  0  0  0
    6.3301    3.2688    0.0000 H   0  0  0  0  0  0  0  0  0  0  0  0
    4.0611   -3.6612    0.0000 H   0  0  0  0  0  0  0  0  0  0  0  0
    6.8671   -2.0412    0.0000 H   0  0  0  0  0  0  0  0  0  0  0  0
    7.7331    0.8388    0.0000 H   0  0  0  0  0  0  0  0  0  0  0  0
    7.7331    2.4588    0.0000 H   0  0  0  0  0  0  0  0  0  0  0  0
    3.5556    1.6356    0.0000 H   0  0  0  0  0  0  0  0  0  0  0  0
    4.9543    4.0582    0.0000 H   0  0  0  0  0  0  0  0  0  0  0  0
    4.2690   -0.5412    0.0000 H   0  0  0  0  0  0  0  0  0  0  0  0
    2.8660   -2.9712    0.0000 H   0  0  0  0  0  0  0  0  0  0  0  0
    5.4641   -4.4712    0.0000 H   0  0  0  0  0  0  0  0  0  0  0  0
    6.8671   -3.6612    0.0000 H   0  0  0  0  0  0  0  0  0  0  0  0
    3.2632    4.4176    0.0000 H   0  0  0  0  0  0  0  0  0  0  0  0
    2.3988    2.9204    0.0000 H   0  0  0  0  0  0  0  0  0  0  0  0
    2.8660    0.2688    0.0000 H   0  0  0  0  0  0  0  0  0  0  0  0
    1.4631   -2.1612    0.0000 H   0  0  0  0  0  0  0  0  0  0  0  0
    1.4631   -0.5412    0.0000 H   0  0  0  0  0  0  0  0  0  0  0  0
  1 10  2  0  0  0  0
  2  6  1  0  0  0  0
  2 16  1  0  0  0  0
  2 17  1  0  0  0  0
  3  5  1  0  0  0  0
  3 10  1  0  0  0  0
  3 28  1  0  0  0  0
  4  5  1  0  0  0  0
  4  8  1  0  0  0  0
  4 11  2  0  0  0  0
  5 13  2  0  0  0  0
  6  9  1  0  0  0  0
  6 12  2  0  0  0  0
  7  9  2  0  0  0  0
  7 10  1  0  0  0  0
  7 14  1  0  0  0  0
  8 18  2  0  0  0  0
  8 19  1  0  0  0  0
  9 27  1  0  0  0  0
 11 20  1  0  0  0  0
 11 30  1  0  0  0  0
 12 15  1  0  0  0  0
 12 29  1  0  0  0  0
 13 21  1  0  0  0  0
 13 31  1  0  0  0  0
 14 15  2  0  0  0  0
 14 32  1  0  0  0  0
 15 33  1  0  0  0  0
 16 23  2  0  0  0  0
 16 35  1  0  0  0  0
 17 22  2  0  0  0  0
 17 34  1  0  0  0  0
 18 24  1  0  0  0  0
 18 36  1  0  0  0  0
 19 25  2  0  0  0  0
 19 37  1  0  0  0  0
 20 21  2  0  0  0  0
 20 38  1  0  0  0  0
 21 39  1  0  0  0  0
 22 23  1  0  0  0  0
 22 41  1  0  0  0  0
 23 40  1  0  0  0  0
 24 26  2  0  0  0  0
 24 42  1  0  0  0  0
 25 26  1  0  0  0  0
 25 43  1  0  0  0  0
 26 44  1  0  0  0  0
M  END
> <PUBCHEM_COMPOUND_CID>
25353654

> <PUBCHEM_COMPOUND_CANONICALIZED>
1

> <PUBCHEM_CACTVS_COMPLEXITY>
453

> <PUBCHEM_CACTVS_HBOND_ACCEPTOR>
1

> <PUBCHEM_CACTVS_HBOND_DONOR>
1

> <PUBCHEM_CACTVS_ROTATABLE_BOND>
4

> <PUBCHEM_CACTVS_SUBSKEYS>
AAADceB7IAAAAAAAAAAAAAAAAAAAAWAAAAAwYMAAAAAAAAAB1AAAHgAQAAAADAjBmgQ8wJPMEACoAjV3VACCgCA1AiAI2CE4ZNgIIPLAlZGEIQhglADIyYcciMCOgAAAQAACAAAAAACAAAQAAAAAAAAAAA==

> <PUBCHEM_IUPAC_OPENEYE_NAME>
N-(2-phenylphenyl)-3-pyrrol-1-yl-benzamide

> <PUBCHEM_IUPAC_CAS_NAME>
N-(2-phenylphenyl)-3-(1-pyrrolyl)benzamide

> <PUBCHEM_IUPAC_NAME>
N-(2-phenylphenyl)-3-pyrrol-1-ylbenzamide

> <PUBCHEM_IUPAC_SYSTEMATIC_NAME>
N-(2-phenylphenyl)-3-pyrrol-1-yl-benzamide

> <PUBCHEM_IUPAC_TRADITIONAL_NAME>
N-(2-phenylphenyl)-3-pyrrol-1-yl-benzamide

> <PUBCHEM_IUPAC_INCHI>
InChI=1S/C23H18N2O/c26-23(19-11-8-12-20(17-19)25-15-6-7-16-25)24-22-14-5-4-13-21(22)18-9-2-1-3-10-18/h1-17H,(H,24,26)

> <PUBCHEM_IUPAC_INCHIKEY>
XOKNWOUJWKBHKY-UHFFFAOYSA-N

> <PUBCHEM_XLOGP3>
4.1

> <PUBCHEM_EXACT_MASS>
338.141913

> <PUBCHEM_MOLECULAR_FORMULA>
C23H18N2O

> <PUBCHEM_MOLECULAR_WEIGHT>
338.40182

> <PUBCHEM_OPENEYE_CAN_SMILES>
C1=CC=C(C=C1)C2=CC=CC=C2NC(=O)C3=CC(=CC=C3)N4C=CC=C4

> <PUBCHEM_OPENEYE_ISO_SMILES>
C1=CC=C(C=C1)C2=CC=CC=C2NC(=O)C3=CC(=CC=C3)N4C=CC=C4

> <PUBCHEM_CACTVS_TPSA>
34

> <PUBCHEM_MONOISOTOPIC_WEIGHT>
338.141913

> <PUBCHEM_TOTAL_CHARGE>
0

> <PUBCHEM_HEAVY_ATOM_COUNT>
26

> <PUBCHEM_ATOM_DEF_STEREO_COUNT>
0

> <PUBCHEM_ATOM_UDEF_STEREO_COUNT>
0

> <PUBCHEM_BOND_DEF_STEREO_COUNT>
0

> <PUBCHEM_BOND_UDEF_STEREO_COUNT>
0

> <PUBCHEM_ISOTOPIC_ATOM_COUNT>
0

> <PUBCHEM_COMPONENT_COUNT>
1

> <PUBCHEM_CACTVS_TAUTO_COUNT>
2

> <PUBCHEM_COORDINATE_TYPE>
1
5
255

> <PUBCHEM_BONDANNOTATIONS>
11  20  8
12  15  8
13  21  8
14  15  8
16  23  8
17  22  8
18  24  8
19  25  8
2  16  8
2  17  8
20  21  8
22  23  8
24  26  8
25  26  8
4  11  8
4  5  8
5  13  8
6  12  8
6  9  8
7  14  8
7  9  8
8  18  8
8  19  8

$$$$
