30600522
  -OEChem-03221309322D

 30 31  0     0  0  0  0  0  0999 V2000
    6.0010    0.8877    0.0000 O   0  0  0  0  0  0  0  0  0  0  0  0
    5.1350   -0.6123    0.0000 N   0  0  0  0  0  0  0  0  0  0  0  0
    7.7331   -0.1123    0.0000 C   0  0  0  0  0  0  0  0  0  0  0  0
    9.4651   -0.1123    0.0000 C   0  0  0  0  0  0  0  0  0  0  0  0
    9.4651    0.8877    0.0000 C   0  0  0  0  0  0  0  0  0  0  0  0
    8.5991   -0.6123    0.0000 C   0  0  0  0  0  0  0  0  0  0  0  0
    6.8671   -0.6123    0.0000 C   0  0  0  0  0  0  0  0  0  0  0  0
    7.7331    0.8877    0.0000 C   0  0  0  0  0  0  0  0  0  0  0  0
    8.5991    1.3877    0.0000 C   0  0  0  0  0  0  0  0  0  0  0  0
   10.3591   -0.6470    0.0000 C   0  0  0  0  0  0  0  0  0  0  0  0
   10.3591    1.4223    0.0000 C   0  0  0  0  0  0  0  0  0  0  0  0
    6.0010   -0.1123    0.0000 C   0  0  0  0  0  0  0  0  0  0  0  0
   11.2651   -0.1331    0.0000 C   0  0  0  0  0  0  0  0  0  0  0  0
   11.2651    0.9085    0.0000 C   0  0  0  0  0  0  0  0  0  0  0  0
    4.2690   -0.1123    0.0000 C   0  0  0  0  0  0  0  0  0  0  0  0
    3.4030   -0.6123    0.0000 C   0  0  0  0  0  0  0  0  0  0  0  0
    2.5369   -1.1123    0.0000 C   0  0  0  0  0  0  0  0  0  0  0  0
    6.4685   -1.0873    0.0000 H   0  0  0  0  0  0  0  0  0  0  0  0
    7.2656   -1.0873    0.0000 H   0  0  0  0  0  0  0  0  0  0  0  0
    8.5991   -1.2323    0.0000 H   0  0  0  0  0  0  0  0  0  0  0  0
    7.1962    1.1977    0.0000 H   0  0  0  0  0  0  0  0  0  0  0  0
    8.5991    2.0077    0.0000 H   0  0  0  0  0  0  0  0  0  0  0  0
   10.3519   -1.2670    0.0000 H   0  0  0  0  0  0  0  0  0  0  0  0
   10.3519    2.0423    0.0000 H   0  0  0  0  0  0  0  0  0  0  0  0
   11.8009   -0.4452    0.0000 H   0  0  0  0  0  0  0  0  0  0  0  0
   11.8009    1.2206    0.0000 H   0  0  0  0  0  0  0  0  0  0  0  0
    5.1350   -1.2323    0.0000 H   0  0  0  0  0  0  0  0  0  0  0  0
    4.6675    0.3626    0.0000 H   0  0  0  0  0  0  0  0  0  0  0  0
    3.8705    0.3626    0.0000 H   0  0  0  0  0  0  0  0  0  0  0  0
    2.0000   -1.4223    0.0000 H   0  0  0  0  0  0  0  0  0  0  0  0
  1 12  2  0  0  0  0
  2 12  1  0  0  0  0
  2 15  1  0  0  0  0
  2 27  1  0  0  0  0
  3  6  2  0  0  0  0
  3  7  1  0  0  0  0
  3  8  1  0  0  0  0
  4  5  1  0  0  0  0
  4  6  1  0  0  0  0
  4 10  2  0  0  0  0
  5  9  1  0  0  0  0
  5 11  2  0  0  0  0
  6 20  1  0  0  0  0
  7 12  1  0  0  0  0
  7 18  1  0  0  0  0
  7 19  1  0  0  0  0
  8  9  2  0  0  0  0
  8 21  1  0  0  0  0
  9 22  1  0  0  0  0
 10 13  1  0  0  0  0
 10 23  1  0  0  0  0
 11 14  1  0  0  0  0
 11 24  1  0  0  0  0
 13 14  2  0  0  0  0
 13 25  1  0  0  0  0
 14 26  1  0  0  0  0
 15 16  1  0  0  0  0
 15 28  1  0  0  0  0
 15 29  1  0  0  0  0
 16 17  3  0  0  0  0
 17 30  1  0  0  0  0
M  END
> <PUBCHEM_COMPOUND_CID>
30600522

> <PUBCHEM_COMPOUND_CANONICALIZED>
1

> <PUBCHEM_CACTVS_COMPLEXITY>
314

> <PUBCHEM_CACTVS_HBOND_ACCEPTOR>
1

> <PUBCHEM_CACTVS_HBOND_DONOR>
1

> <PUBCHEM_CACTVS_ROTATABLE_BOND>
3

> <PUBCHEM_CACTVS_SUBSKEYS>
AAADccByIAAAAAAAAAAAAAAAAAAAAAAAAAAwYAAAAAAAAADBUAAAHgAQAAAADADBmAQwAMLAAADIGiFSEAACAAAgAAAIiIEIAIgIIDKAlRGEIAAglgCIiAcYiMCOwAACAAAQAACAAAQAACAAAAAAAAAAAA==

> <PUBCHEM_IUPAC_OPENEYE_NAME>
2-(2-naphthyl)-N-prop-2-ynyl-acetamide

> <PUBCHEM_IUPAC_CAS_NAME>
2-(2-naphthalenyl)-N-prop-2-ynylacetamide

> <PUBCHEM_IUPAC_NAME>
2-naphthalen-2-yl-N-prop-2-ynylacetamide

> <PUBCHEM_IUPAC_SYSTEMATIC_NAME>
2-naphthalen-2-yl-N-prop-2-ynyl-ethanamide

> <PUBCHEM_IUPAC_TRADITIONAL_NAME>
2-(2-naphthyl)-N-propargyl-acetamide

> <PUBCHEM_IUPAC_INCHI>
InChI=1S/C15H13NO/c1-2-9-16-15(17)11-12-7-8-13-5-3-4-6-14(13)10-12/h1,3-8,10H,9,11H2,(H,16,17)

> <PUBCHEM_IUPAC_INCHIKEY>
WQVITYZLLSBRNZ-UHFFFAOYSA-N

> <PUBCHEM_XLOGP3>
2.7

> <PUBCHEM_EXACT_MASS>
223.099714

> <PUBCHEM_MOLECULAR_FORMULA>
C15H13NO

> <PUBCHEM_MOLECULAR_WEIGHT>
223.26982

> <PUBCHEM_OPENEYE_CAN_SMILES>
C#CCNC(=O)CC1=CC2=CC=CC=C2C=C1

> <PUBCHEM_OPENEYE_ISO_SMILES>
C#CCNC(=O)CC1=CC2=CC=CC=C2C=C1

> <PUBCHEM_CACTVS_TPSA>
29.1

> <PUBCHEM_MONOISOTOPIC_WEIGHT>
223.099714

> <PUBCHEM_TOTAL_CHARGE>
0

> <PUBCHEM_HEAVY_ATOM_COUNT>
17

> <PUBCHEM_ATOM_DEF_STEREO_COUNT>
0

> <PUBCHEM_ATOM_UDEF_STEREO_COUNT>
0

> <PUBCHEM_BOND_DEF_STEREO_COUNT>
0

> <PUBCHEM_BOND_UDEF_STEREO_COUNT>
0

> <PUBCHEM_ISOTOPIC_ATOM_COUNT>
0

> <PUBCHEM_COMPONENT_COUNT>
1

> <PUBCHEM_CACTVS_TAUTO_COUNT>
2

> <PUBCHEM_COORDINATE_TYPE>
1
5
255

> <PUBCHEM_BONDANNOTATIONS>
10  13  8
11  14  8
13  14  8
3  6  8
3  8  8
4  10  8
4  5  8
4  6  8
5  11  8
5  9  8
8  9  8

$$$$
30600690
  -OEChem-03221309322D

 31 32  0     0  0  0  0  0  0999 V2000
    5.6103    2.0488    0.0000 O   0  0  0  0  0  0  0  0  0  0  0  0
    4.6783   -2.4122    0.0000 N   0  0  0  0  0  0  0  0  0  0  0  0
    7.2566    1.5107    0.0000 N   0  0  0  0  0  0  0  0  0  0  0  0
    4.6783   -0.8028    0.0000 C   0  0  0  0  0  0  0  0  0  0  0  0
    4.9889    0.1478    0.0000 C   0  0  0  0  0  0  0  0  0  0  0  0
    3.7320   -1.1075    0.0000 C   0  0  0  0  0  0  0  0  0  0  0  0
    3.7320   -2.1075    0.0000 C   0  0  0  0  0  0  0  0  0  0  0  0
    5.9674    0.3540    0.0000 C   0  0  0  0  0  0  0  0  0  0  0  0
    5.2619   -1.6075    0.0000 C   0  0  0  0  0  0  0  0  0  0  0  0
    2.8660   -0.6075    0.0000 C   0  0  0  0  0  0  0  0  0  0  0  0
    2.8660   -2.6075    0.0000 C   0  0  0  0  0  0  0  0  0  0  0  0
    6.2781    1.3045    0.0000 C   0  0  0  0  0  0  0  0  0  0  0  0
    2.0000   -1.1075    0.0000 C   0  0  0  0  0  0  0  0  0  0  0  0
    2.0000   -2.1075    0.0000 C   0  0  0  0  0  0  0  0  0  0  0  0
    7.5673    2.4612    0.0000 C   0  0  0  0  0  0  0  0  0  0  0  0
    8.5458    2.6675    0.0000 C   0  0  0  0  0  0  0  0  0  0  0  0
    9.5243    2.8737    0.0000 C   0  0  0  0  0  0  0  0  0  0  0  0
    4.9684    0.7674    0.0000 H   0  0  0  0  0  0  0  0  0  0  0  0
    4.3751    0.2351    0.0000 H   0  0  0  0  0  0  0  0  0  0  0  0
    5.9880   -0.2657    0.0000 H   0  0  0  0  0  0  0  0  0  0  0  0
    6.5812    0.2666    0.0000 H   0  0  0  0  0  0  0  0  0  0  0  0
    5.8819   -1.6075    0.0000 H   0  0  0  0  0  0  0  0  0  0  0  0
    4.8709   -3.0015    0.0000 H   0  0  0  0  0  0  0  0  0  0  0  0
    2.8660    0.0125    0.0000 H   0  0  0  0  0  0  0  0  0  0  0  0
    2.8660   -3.2275    0.0000 H   0  0  0  0  0  0  0  0  0  0  0  0
    1.4631   -0.7975    0.0000 H   0  0  0  0  0  0  0  0  0  0  0  0
    1.4631   -2.4175    0.0000 H   0  0  0  0  0  0  0  0  0  0  0  0
    7.6707    1.0493    0.0000 H   0  0  0  0  0  0  0  0  0  0  0  0
    7.5467    3.0809    0.0000 H   0  0  0  0  0  0  0  0  0  0  0  0
    6.9534    2.5486    0.0000 H   0  0  0  0  0  0  0  0  0  0  0  0
   10.1310    3.0015    0.0000 H   0  0  0  0  0  0  0  0  0  0  0  0
  1 12  2  0  0  0  0
  2  7  1  0  0  0  0
  2  9  1  0  0  0  0
  2 23  1  0  0  0  0
  3 12  1  0  0  0  0
  3 15  1  0  0  0  0
  3 28  1  0  0  0  0
  4  5  1  0  0  0  0
  4  6  1  0  0  0  0
  4  9  2  0  0  0  0
  5  8  1  0  0  0  0
  5 18  1  0  0  0  0
  5 19  1  0  0  0  0
  6  7  1  0  0  0  0
  6 10  2  0  0  0  0
  7 11  2  0  0  0  0
  8 12  1  0  0  0  0
  8 20  1  0  0  0  0
  8 21  1  0  0  0  0
  9 22  1  0  0  0  0
 10 13  1  0  0  0  0
 10 24  1  0  0  0  0
 11 14  1  0  0  0  0
 11 25  1  0  0  0  0
 13 14  2  0  0  0  0
 13 26  1  0  0  0  0
 14 27  1  0  0  0  0
 15 16  1  0  0  0  0
 15 29  1  0  0  0  0
 15 30  1  0  0  0  0
 16 17  3  0  0  0  0
 17 31  1  0  0  0  0
M  END
> <PUBCHEM_COMPOUND_CID>
30600690

> <PUBCHEM_COMPOUND_CANONICALIZED>
1

> <PUBCHEM_CACTVS_COMPLEXITY>
317

> <PUBCHEM_CACTVS_HBOND_ACCEPTOR>
1

> <PUBCHEM_CACTVS_HBOND_DONOR>
2

> <PUBCHEM_CACTVS_ROTATABLE_BOND>
4

> <PUBCHEM_CACTVS_SUBSKEYS>
AAADccBzIAAAAAAAAAAAAAAAAAAAAWAAAAAwAAAAAAAAAFgB8AAAHgAQAAAADAjBngQ8wPLJkADoGzV3VACCgCAxAiAI2aE4ZJgIIPLAkZGEIAhglgDIyAcYicCOgAAAAAACAAAAAAAAAAQAAAAAAAAAAA==

> <PUBCHEM_IUPAC_OPENEYE_NAME>
3-(1H-indol-3-yl)-N-prop-2-ynyl-propanamide

> <PUBCHEM_IUPAC_CAS_NAME>
3-(1H-indol-3-yl)-N-prop-2-ynylpropanamide

> <PUBCHEM_IUPAC_NAME>
3-(1H-indol-3-yl)-N-prop-2-ynylpropanamide

> <PUBCHEM_IUPAC_SYSTEMATIC_NAME>
3-(1H-indol-3-yl)-N-prop-2-ynyl-propanamide

> <PUBCHEM_IUPAC_TRADITIONAL_NAME>
3-(1H-indol-3-yl)-N-propargyl-propionamide

> <PUBCHEM_IUPAC_INCHI>
InChI=1S/C14H14N2O/c1-2-9-15-14(17)8-7-11-10-16-13-6-4-3-5-12(11)13/h1,3-6,10,16H,7-9H2,(H,15,17)

> <PUBCHEM_IUPAC_INCHIKEY>
RZMDLVARUYFHIL-UHFFFAOYSA-N

> <PUBCHEM_XLOGP3>
1.6

> <PUBCHEM_EXACT_MASS>
226.110613

> <PUBCHEM_MOLECULAR_FORMULA>
C14H14N2O

> <PUBCHEM_MOLECULAR_WEIGHT>
226.27376

> <PUBCHEM_OPENEYE_CAN_SMILES>
C#CCNC(=O)CCC1=CNC2=CC=CC=C21

> <PUBCHEM_OPENEYE_ISO_SMILES>
C#CCNC(=O)CCC1=CNC2=CC=CC=C21

> <PUBCHEM_CACTVS_TPSA>
44.9

> <PUBCHEM_MONOISOTOPIC_WEIGHT>
226.110613

> <PUBCHEM_TOTAL_CHARGE>
0

> <PUBCHEM_HEAVY_ATOM_COUNT>
17

> <PUBCHEM_ATOM_DEF_STEREO_COUNT>
0

> <PUBCHEM_ATOM_UDEF_STEREO_COUNT>
0

> <PUBCHEM_BOND_DEF_STEREO_COUNT>
0

> <PUBCHEM_BOND_UDEF_STEREO_COUNT>
0

> <PUBCHEM_ISOTOPIC_ATOM_COUNT>
0

> <PUBCHEM_COMPONENT_COUNT>
1

> <PUBCHEM_CACTVS_TAUTO_COUNT>
2

> <PUBCHEM_COORDINATE_TYPE>
1
5
255

> <PUBCHEM_BONDANNOTATIONS>
10  13  8
11  14  8
13  14  8
2  7  8
2  9  8
4  6  8
4  9  8
6  10  8
6  7  8
7  11  8

$$$$
30600739
  -OEChem-03221309322D

 21 21  0     0  0  0  0  0  0999 V2000
    2.0000   -0.4050    0.0000 Cl  0  0  0  0  0  0  0  0  0  0  0  0
    3.7320   -3.4050    0.0000 Cl  0  0  0  0  0  0  0  0  0  0  0  0
    2.8660    1.0950    0.0000 O   0  0  0  0  0  0  0  0  0  0  0  0
    4.5981    1.0950    0.0000 N   0  0  0  0  0  0  0  0  0  0  0  0
    3.7320   -0.4050    0.0000 C   0  0  0  0  0  0  0  0  0  0  0  0
    2.8660   -0.9050    0.0000 C   0  0  0  0  0  0  0  0  0  0  0  0
    4.5981   -0.9050    0.0000 C   0  0  0  0  0  0  0  0  0  0  0  0
    3.7320    0.5950    0.0000 C   0  0  0  0  0  0  0  0  0  0  0  0
    2.8660   -1.9050    0.0000 C   0  0  0  0  0  0  0  0  0  0  0  0
    4.5981   -1.9050    0.0000 C   0  0  0  0  0  0  0  0  0  0  0  0
    3.7320   -2.4050    0.0000 C   0  0  0  0  0  0  0  0  0  0  0  0
    4.5981    2.0950    0.0000 C   0  0  0  0  0  0  0  0  0  0  0  0
    5.4641    2.5950    0.0000 C   0  0  0  0  0  0  0  0  0  0  0  0
    6.3301    3.0950    0.0000 C   0  0  0  0  0  0  0  0  0  0  0  0
    5.1350   -0.5950    0.0000 H   0  0  0  0  0  0  0  0  0  0  0  0
    2.3291   -2.2150    0.0000 H   0  0  0  0  0  0  0  0  0  0  0  0
    5.1350   -2.2150    0.0000 H   0  0  0  0  0  0  0  0  0  0  0  0
    5.1350    0.7850    0.0000 H   0  0  0  0  0  0  0  0  0  0  0  0
    4.3860    2.6776    0.0000 H   0  0  0  0  0  0  0  0  0  0  0  0
    3.9875    1.9873    0.0000 H   0  0  0  0  0  0  0  0  0  0  0  0
    6.8671    3.4050    0.0000 H   0  0  0  0  0  0  0  0  0  0  0  0
  1  6  1  0  0  0  0
  2 11  1  0  0  0  0
  3  8  2  0  0  0  0
  4  8  1  0  0  0  0
  4 12  1  0  0  0  0
  4 18  1  0  0  0  0
  5  6  2  0  0  0  0
  5  7  1  0  0  0  0
  5  8  1  0  0  0  0
  6  9  1  0  0  0  0
  7 10  2  0  0  0  0
  7 15  1  0  0  0  0
  9 11  2  0  0  0  0
  9 16  1  0  0  0  0
 10 11  1  0  0  0  0
 10 17  1  0  0  0  0
 12 13  1  0  0  0  0
 12 19  1  0  0  0  0
 12 20  1  0  0  0  0
 13 14  3  0  0  0  0
 14 21  1  0  0  0  0
M  END
> <PUBCHEM_COMPOUND_CID>
30600739

> <PUBCHEM_COMPOUND_CANONICALIZED>
1

> <PUBCHEM_CACTVS_COMPLEXITY>
258

> <PUBCHEM_CACTVS_HBOND_ACCEPTOR>
1

> <PUBCHEM_CACTVS_HBOND_DONOR>
1

> <PUBCHEM_CACTVS_ROTATABLE_BOND>
2

> <PUBCHEM_CACTVS_SUBSKEYS>
AAADcYByIAAGAAAAAAAAAAAAAAAAAAAAAAAwAAAAAAAAAAABAAAAHgIQAAAADALBmCQwAILAAADIGiFSEACCAAAkBQAIiIEIBsgIIDKBlxGEIQhghgCIjYcYiACOBAAAAACBAAAIAAAAAQIAAAAAAAAAAA==

> <PUBCHEM_IUPAC_OPENEYE_NAME>
2,4-dichloro-N-prop-2-ynyl-benzamide

> <PUBCHEM_IUPAC_CAS_NAME>
2,4-dichloro-N-prop-2-ynylbenzamide

> <PUBCHEM_IUPAC_NAME>
2,4-dichloro-N-prop-2-ynylbenzamide

> <PUBCHEM_IUPAC_SYSTEMATIC_NAME>
2,4-bis(chloranyl)-N-prop-2-ynyl-benzamide

> <PUBCHEM_IUPAC_TRADITIONAL_NAME>
2,4-dichloro-N-propargyl-benzamide

> <PUBCHEM_IUPAC_INCHI>
InChI=1S/C10H7Cl2NO/c1-2-5-13-10(14)8-4-3-7(11)6-9(8)12/h1,3-4,6H,5H2,(H,13,14)

> <PUBCHEM_IUPAC_INCHIKEY>
CCHLZZSMLCITSO-UHFFFAOYSA-N

> <PUBCHEM_XLOGP3>
2.7

> <PUBCHEM_EXACT_MASS>
226.990469

> <PUBCHEM_MOLECULAR_FORMULA>
C10H7Cl2NO

> <PUBCHEM_MOLECULAR_WEIGHT>
228.07468

> <PUBCHEM_OPENEYE_CAN_SMILES>
C#CCNC(=O)C1=C(C=C(C=C1)Cl)Cl

> <PUBCHEM_OPENEYE_ISO_SMILES>
C#CCNC(=O)C1=C(C=C(C=C1)Cl)Cl

> <PUBCHEM_CACTVS_TPSA>
29.1

> <PUBCHEM_MONOISOTOPIC_WEIGHT>
226.990469

> <PUBCHEM_TOTAL_CHARGE>
0

> <PUBCHEM_HEAVY_ATOM_COUNT>
14

> <PUBCHEM_ATOM_DEF_STEREO_COUNT>
0

> <PUBCHEM_ATOM_UDEF_STEREO_COUNT>
0

> <PUBCHEM_BOND_DEF_STEREO_COUNT>
0

> <PUBCHEM_BOND_UDEF_STEREO_COUNT>
0

> <PUBCHEM_ISOTOPIC_ATOM_COUNT>
0

> <PUBCHEM_COMPONENT_COUNT>
1

> <PUBCHEM_CACTVS_TAUTO_COUNT>
2

> <PUBCHEM_COORDINATE_TYPE>
1
5
255

> <PUBCHEM_BONDANNOTATIONS>
10  11  8
5  6  8
5  7  8
6  9  8
7  10  8
9  11  8

$$$$
30600822
  -OEChem-03221309322D

 21 21  0     0  0  0  0  0  0999 V2000
    2.0000   -0.9050    0.0000 Cl  0  0  0  0  0  0  0  0  0  0  0  0
    5.4641   -2.9050    0.0000 Cl  0  0  0  0  0  0  0  0  0  0  0  0
    2.8660    0.5950    0.0000 O   0  0  0  0  0  0  0  0  0  0  0  0
    4.5981    0.5950    0.0000 N   0  0  0  0  0  0  0  0  0  0  0  0
    3.7321   -0.9050    0.0000 C   0  0  0  0  0  0  0  0  0  0  0  0
    2.8660   -1.4050    0.0000 C   0  0  0  0  0  0  0  0  0  0  0  0
    4.5981   -1.4050    0.0000 C   0  0  0  0  0  0  0  0  0  0  0  0
    3.7321    0.0950    0.0000 C   0  0  0  0  0  0  0  0  0  0  0  0
    4.5981   -2.4050    0.0000 C   0  0  0  0  0  0  0  0  0  0  0  0
    2.8660   -2.4050    0.0000 C   0  0  0  0  0  0  0  0  0  0  0  0
    3.7321   -2.9050    0.0000 C   0  0  0  0  0  0  0  0  0  0  0  0
    4.5981    1.5950    0.0000 C   0  0  0  0  0  0  0  0  0  0  0  0
    5.4641    2.0950    0.0000 C   0  0  0  0  0  0  0  0  0  0  0  0
    6.3301    2.5950    0.0000 C   0  0  0  0  0  0  0  0  0  0  0  0
    5.1350   -1.0950    0.0000 H   0  0  0  0  0  0  0  0  0  0  0  0
    2.3291   -2.7150    0.0000 H   0  0  0  0  0  0  0  0  0  0  0  0
    3.7321   -3.5250    0.0000 H   0  0  0  0  0  0  0  0  0  0  0  0
    5.1350    0.2850    0.0000 H   0  0  0  0  0  0  0  0  0  0  0  0
    4.3860    2.1776    0.0000 H   0  0  0  0  0  0  0  0  0  0  0  0
    3.9875    1.4873    0.0000 H   0  0  0  0  0  0  0  0  0  0  0  0
    6.8671    2.9050    0.0000 H   0  0  0  0  0  0  0  0  0  0  0  0
  1  6  1  0  0  0  0
  2  9  1  0  0  0  0
  3  8  2  0  0  0  0
  4  8  1  0  0  0  0
  4 12  1  0  0  0  0
  4 18  1  0  0  0  0
  5  6  2  0  0  0  0
  5  7  1  0  0  0  0
  5  8  1  0  0  0  0
  6 10  1  0  0  0  0
  7  9  2  0  0  0  0
  7 15  1  0  0  0  0
  9 11  1  0  0  0  0
 10 11  2  0  0  0  0
 10 16  1  0  0  0  0
 11 17  1  0  0  0  0
 12 13  1  0  0  0  0
 12 19  1  0  0  0  0
 12 20  1  0  0  0  0
 13 14  3  0  0  0  0
 14 21  1  0  0  0  0
M  END
> <PUBCHEM_COMPOUND_CID>
30600822

> <PUBCHEM_COMPOUND_CANONICALIZED>
1

> <PUBCHEM_CACTVS_COMPLEXITY>
258

> <PUBCHEM_CACTVS_HBOND_ACCEPTOR>
1

> <PUBCHEM_CACTVS_HBOND_DONOR>
1

> <PUBCHEM_CACTVS_ROTATABLE_BOND>
2

> <PUBCHEM_CACTVS_SUBSKEYS>
AAADcYByIAAGAAAAAAAAAAAAAAAAAAAAAAAwAAAAAAAAAAABAAAAHgIQAAAADALBmCQwAILAAADIGiFSEACCAAAkBQAIiIEIBsgIIDKBlxGEIQhghgCIjYcYiACOAAAQIAABAAAAACBAAAIAAAAAAAAAAA==

> <PUBCHEM_IUPAC_OPENEYE_NAME>
2,5-dichloro-N-prop-2-ynyl-benzamide

> <PUBCHEM_IUPAC_CAS_NAME>
2,5-dichloro-N-prop-2-ynylbenzamide

> <PUBCHEM_IUPAC_NAME>
2,5-dichloro-N-prop-2-ynylbenzamide

> <PUBCHEM_IUPAC_SYSTEMATIC_NAME>
2,5-bis(chloranyl)-N-prop-2-ynyl-benzamide

> <PUBCHEM_IUPAC_TRADITIONAL_NAME>
2,5-dichloro-N-propargyl-benzamide

> <PUBCHEM_IUPAC_INCHI>
InChI=1S/C10H7Cl2NO/c1-2-5-13-10(14)8-6-7(11)3-4-9(8)12/h1,3-4,6H,5H2,(H,13,14)

> <PUBCHEM_IUPAC_INCHIKEY>
QEKUWYXJRYUJHY-UHFFFAOYSA-N

> <PUBCHEM_XLOGP3>
2.7

> <PUBCHEM_EXACT_MASS>
226.990469

> <PUBCHEM_MOLECULAR_FORMULA>
C10H7Cl2NO

> <PUBCHEM_MOLECULAR_WEIGHT>
228.07468

> <PUBCHEM_OPENEYE_CAN_SMILES>
C#CCNC(=O)C1=C(C=CC(=C1)Cl)Cl

> <PUBCHEM_OPENEYE_ISO_SMILES>
C#CCNC(=O)C1=C(C=CC(=C1)Cl)Cl

> <PUBCHEM_CACTVS_TPSA>
29.1

> <PUBCHEM_MONOISOTOPIC_WEIGHT>
226.990469

> <PUBCHEM_TOTAL_CHARGE>
0

> <PUBCHEM_HEAVY_ATOM_COUNT>
14

> <PUBCHEM_ATOM_DEF_STEREO_COUNT>
0

> <PUBCHEM_ATOM_UDEF_STEREO_COUNT>
0

> <PUBCHEM_BOND_DEF_STEREO_COUNT>
0

> <PUBCHEM_BOND_UDEF_STEREO_COUNT>
0

> <PUBCHEM_ISOTOPIC_ATOM_COUNT>
0

> <PUBCHEM_COMPONENT_COUNT>
1

> <PUBCHEM_CACTVS_TAUTO_COUNT>
2

> <PUBCHEM_COORDINATE_TYPE>
1
5
255

> <PUBCHEM_BONDANNOTATIONS>
10  11  8
5  6  8
5  7  8
6  10  8
7  9  8
9  11  8

$$$$
30611136
  -OEChem-03221309332D

 47 49  0     0  0  0  0  0  0999 V2000
    6.2781    0.5210    0.0000 N   0  3  0  0  0  0  0  0  0  0  0  0
    4.6783   -3.1957    0.0000 N   0  0  0  0  0  0  0  0  0  0  0  0
    5.9674   -0.4295    0.0000 C   0  0  0  0  0  0  0  0  0  0  0  0
    4.9889   -0.6357    0.0000 C   0  0  0  0  0  0  0  0  0  0  0  0
    6.5888    1.4715    0.0000 C   0  0  0  0  0  0  0  0  0  0  0  0
    4.6783   -1.5862    0.0000 C   0  0  0  0  0  0  0  0  0  0  0  0
    7.5673    1.6778    0.0000 C   0  0  0  0  0  0  0  0  0  0  0  0
    3.7320   -1.8910    0.0000 C   0  0  0  0  0  0  0  0  0  0  0  0
    8.2351    0.9335    0.0000 C   0  0  0  0  0  0  0  0  0  0  0  0
    3.7320   -2.8910    0.0000 C   0  0  0  0  0  0  0  0  0  0  0  0
    7.8779    2.6283    0.0000 C   0  0  0  0  0  0  0  0  0  0  0  0
    5.2619   -2.3910    0.0000 C   0  0  0  0  0  0  0  0  0  0  0  0
    8.8564    2.8345    0.0000 C   0  0  0  0  0  0  0  0  0  0  0  0
    9.5243    2.0902    0.0000 C   0  0  0  0  0  0  0  0  0  0  0  0
    9.2136    1.1397    0.0000 C   0  0  0  0  0  0  0  0  0  0  0  0
    2.8660   -1.3910    0.0000 C   0  0  0  0  0  0  0  0  0  0  0  0
    7.9244   -0.0171    0.0000 C   0  0  0  0  0  0  0  0  0  0  0  0
    2.8660   -3.3910    0.0000 C   0  0  0  0  0  0  0  0  0  0  0  0
    9.1671    3.7850    0.0000 C   0  0  0  0  0  0  0  0  0  0  0  0
   10.5028    2.2964    0.0000 C   0  0  0  0  0  0  0  0  0  0  0  0
    2.0000   -1.8910    0.0000 C   0  0  0  0  0  0  0  0  0  0  0  0
    2.0000   -2.8910    0.0000 C   0  0  0  0  0  0  0  0  0  0  0  0
    5.9880   -1.0492    0.0000 H   0  0  0  0  0  0  0  0  0  0  0  0
    6.5812   -0.5168    0.0000 H   0  0  0  0  0  0  0  0  0  0  0  0
    6.8674    0.3284    0.0000 H   0  0  0  0  0  0  0  0  0  0  0  0
    5.6888    0.7136    0.0000 H   0  0  0  0  0  0  0  0  0  0  0  0
    4.9684   -0.0161    0.0000 H   0  0  0  0  0  0  0  0  0  0  0  0
    4.3751   -0.5484    0.0000 H   0  0  0  0  0  0  0  0  0  0  0  0
    6.5682    2.0912    0.0000 H   0  0  0  0  0  0  0  0  0  0  0  0
    5.9750    1.5589    0.0000 H   0  0  0  0  0  0  0  0  0  0  0  0
    7.4639    3.0898    0.0000 H   0  0  0  0  0  0  0  0  0  0  0  0
    5.8819   -2.3910    0.0000 H   0  0  0  0  0  0  0  0  0  0  0  0
    9.6277    0.6782    0.0000 H   0  0  0  0  0  0  0  0  0  0  0  0
    4.8709   -3.7850    0.0000 H   0  0  0  0  0  0  0  0  0  0  0  0
    2.8660   -0.7710    0.0000 H   0  0  0  0  0  0  0  0  0  0  0  0
    7.3351    0.1756    0.0000 H   0  0  0  0  0  0  0  0  0  0  0  0
    7.7318   -0.6064    0.0000 H   0  0  0  0  0  0  0  0  0  0  0  0
    8.5138   -0.2097    0.0000 H   0  0  0  0  0  0  0  0  0  0  0  0
    2.8660   -4.0110    0.0000 H   0  0  0  0  0  0  0  0  0  0  0  0
    9.7564    3.5924    0.0000 H   0  0  0  0  0  0  0  0  0  0  0  0
    9.3597    4.3744    0.0000 H   0  0  0  0  0  0  0  0  0  0  0  0
    8.5778    3.9776    0.0000 H   0  0  0  0  0  0  0  0  0  0  0  0
   10.6306    1.6898    0.0000 H   0  0  0  0  0  0  0  0  0  0  0  0
   11.1095    2.4243    0.0000 H   0  0  0  0  0  0  0  0  0  0  0  0
   10.3749    2.9031    0.0000 H   0  0  0  0  0  0  0  0  0  0  0  0
    1.4631   -1.5810    0.0000 H   0  0  0  0  0  0  0  0  0  0  0  0
    1.4631   -3.2010    0.0000 H   0  0  0  0  0  0  0  0  0  0  0  0
  1  3  1  0  0  0  0
  1  5  1  0  0  0  0
  1 25  1  0  0  0  0
  1 26  1  0  0  0  0
  2 10  1  0  0  0  0
  2 12  1  0  0  0  0
  2 34  1  0  0  0  0
  3  4  1  0  0  0  0
  3 23  1  0  0  0  0
  3 24  1  0  0  0  0
  4  6  1  0  0  0  0
  4 27  1  0  0  0  0
  4 28  1  0  0  0  0
  5  7  1  0  0  0  0
  5 29  1  0  0  0  0
  5 30  1  0  0  0  0
  6  8  1  0  0  0  0
  6 12  2  0  0  0  0
  7  9  2  0  0  0  0
  7 11  1  0  0  0  0
  8 10  1  0  0  0  0
  8 16  2  0  0  0  0
  9 15  1  0  0  0  0
  9 17  1  0  0  0  0
 10 18  2  0  0  0  0
 11 13  2  0  0  0  0
 11 31  1  0  0  0  0
 12 32  1  0  0  0  0
 13 14  1  0  0  0  0
 13 19  1  0  0  0  0
 14 15  2  0  0  0  0
 14 20  1  0  0  0  0
 15 33  1  0  0  0  0
 16 21  1  0  0  0  0
 16 35  1  0  0  0  0
 17 36  1  0  0  0  0
 17 37  1  0  0  0  0
 17 38  1  0  0  0  0
 18 22  1  0  0  0  0
 18 39  1  0  0  0  0
 19 40  1  0  0  0  0
 19 41  1  0  0  0  0
 19 42  1  0  0  0  0
 20 43  1  0  0  0  0
 20 44  1  0  0  0  0
 20 45  1  0  0  0  0
 21 22  2  0  0  0  0
 21 46  1  0  0  0  0
 22 47  1  0  0  0  0
M  CHG  1   1   1
M  END
> <PUBCHEM_COMPOUND_CID>
30611136

> <PUBCHEM_COMPOUND_CANONICALIZED>
1

> <PUBCHEM_CACTVS_COMPLEXITY>
343

> <PUBCHEM_CACTVS_HBOND_ACCEPTOR>
0

> <PUBCHEM_CACTVS_HBOND_DONOR>
2

> <PUBCHEM_CACTVS_ROTATABLE_BOND>
5

> <PUBCHEM_CACTVS_SUBSKEYS>
AAADceB7AAAAAAAAAAAAAAAAAAAAAWAAAAAwYAAAAAAAAFgB9AAAHAAQAAAADAjBHgQ+wPLJkACgAzRnRACCgCAxAiAI2aA4ZJgIIOLAkZGEIAhgkADIyAcQgMAOwAACAAASAACAAAQAACQAAAAAAAAAAA==

> <PUBCHEM_IUPAC_OPENEYE_NAME>
2-(1H-indol-3-yl)ethyl-[(2,4,5-trimethylphenyl)methyl]ammonium

> <PUBCHEM_IUPAC_CAS_NAME>
2-(1H-indol-3-yl)ethyl-[(2,4,5-trimethylphenyl)methyl]ammonium

> <PUBCHEM_IUPAC_NAME>
2-(1H-indol-3-yl)ethyl-[(2,4,5-trimethylphenyl)methyl]azanium

> <PUBCHEM_IUPAC_SYSTEMATIC_NAME>
2-(1H-indol-3-yl)ethyl-[(2,4,5-trimethylphenyl)methyl]azanium

> <PUBCHEM_IUPAC_TRADITIONAL_NAME>
2-(1H-indol-3-yl)ethyl-(2,4,5-trimethylbenzyl)ammonium

> <PUBCHEM_IUPAC_INCHI>
InChI=1S/C20H24N2/c1-14-10-16(3)18(11-15(14)2)12-21-9-8-17-13-22-20-7-5-4-6-19(17)20/h4-7,10-11,13,21-22H,8-9,12H2,1-3H3/p+1

> <PUBCHEM_IUPAC_INCHIKEY>
ZNCGIPQPCYQDCK-UHFFFAOYSA-O

> <PUBCHEM_XLOGP3>
4.6

> <PUBCHEM_EXACT_MASS>
293.201774

> <PUBCHEM_MOLECULAR_FORMULA>
C20H25N2+

> <PUBCHEM_MOLECULAR_WEIGHT>
293.4259

> <PUBCHEM_OPENEYE_CAN_SMILES>
CC1=CC(=C(C=C1C)C[NH2+]CCC2=CNC3=CC=CC=C32)C

> <PUBCHEM_OPENEYE_ISO_SMILES>
CC1=CC(=C(C=C1C)C[NH2+]CCC2=CNC3=CC=CC=C32)C

> <PUBCHEM_CACTVS_TPSA>
32.4

> <PUBCHEM_MONOISOTOPIC_WEIGHT>
293.201774

> <PUBCHEM_TOTAL_CHARGE>
1

> <PUBCHEM_HEAVY_ATOM_COUNT>
22

> <PUBCHEM_ATOM_DEF_STEREO_COUNT>
0

> <PUBCHEM_ATOM_UDEF_STEREO_COUNT>
0

> <PUBCHEM_BOND_DEF_STEREO_COUNT>
0

> <PUBCHEM_BOND_UDEF_STEREO_COUNT>
0

> <PUBCHEM_ISOTOPIC_ATOM_COUNT>
0

> <PUBCHEM_COMPONENT_COUNT>
1

> <PUBCHEM_CACTVS_TAUTO_COUNT>
1

> <PUBCHEM_COORDINATE_TYPE>
1
5
255

> <PUBCHEM_BONDANNOTATIONS>
10  18  8
11  13  8
13  14  8
14  15  8
16  21  8
18  22  8
2  10  8
2  12  8
21  22  8
6  12  8
6  8  8
7  11  8
7  9  8
8  10  8
8  16  8
9  15  8

$$$$
30611137
  -OEChem-03221309332D

 46 48  0     0  0  0  0  0  0999 V2000
    6.2781    0.1489    0.0000 N   0  0  0  0  0  0  0  0  0  0  0  0
    4.6783   -3.5678    0.0000 N   0  0  0  0  0  0  0  0  0  0  0  0
    4.9889   -1.0079    0.0000 C   0  0  0  0  0  0  0  0  0  0  0  0
    4.6783   -1.9584    0.0000 C   0  0  0  0  0  0  0  0  0  0  0  0
    5.9674   -0.8016    0.0000 C   0  0  0  0  0  0  0  0  0  0  0  0
    7.2566    0.3551    0.0000 C   0  0  0  0  0  0  0  0  0  0  0  0
    7.5673    1.3056    0.0000 C   0  0  0  0  0  0  0  0  0  0  0  0
    3.7320   -2.2631    0.0000 C   0  0  0  0  0  0  0  0  0  0  0  0
    3.7320   -3.2631    0.0000 C   0  0  0  0  0  0  0  0  0  0  0  0
    8.5458    1.5118    0.0000 C   0  0  0  0  0  0  0  0  0  0  0  0
    5.2619   -2.7631    0.0000 C   0  0  0  0  0  0  0  0  0  0  0  0
    6.8994    2.0499    0.0000 C   0  0  0  0  0  0  0  0  0  0  0  0
    7.2101    3.0004    0.0000 C   0  0  0  0  0  0  0  0  0  0  0  0
    8.1886    3.2066    0.0000 C   0  0  0  0  0  0  0  0  0  0  0  0
    8.8564    2.4623    0.0000 C   0  0  0  0  0  0  0  0  0  0  0  0
    2.8660   -1.7631    0.0000 C   0  0  0  0  0  0  0  0  0  0  0  0
    2.8660   -3.7631    0.0000 C   0  0  0  0  0  0  0  0  0  0  0  0
    9.2136    0.7675    0.0000 C   0  0  0  0  0  0  0  0  0  0  0  0
    6.5422    3.7447    0.0000 C   0  0  0  0  0  0  0  0  0  0  0  0
    2.0000   -2.2631    0.0000 C   0  0  0  0  0  0  0  0  0  0  0  0
    8.4993    4.1572    0.0000 C   0  0  0  0  0  0  0  0  0  0  0  0
    2.0000   -3.2631    0.0000 C   0  0  0  0  0  0  0  0  0  0  0  0
    4.9684   -0.3882    0.0000 H   0  0  0  0  0  0  0  0  0  0  0  0
    4.3751   -0.9205    0.0000 H   0  0  0  0  0  0  0  0  0  0  0  0
    5.9880   -1.4213    0.0000 H   0  0  0  0  0  0  0  0  0  0  0  0
    6.5812   -0.8890    0.0000 H   0  0  0  0  0  0  0  0  0  0  0  0
    7.2772   -0.2646    0.0000 H   0  0  0  0  0  0  0  0  0  0  0  0
    7.8704    0.2677    0.0000 H   0  0  0  0  0  0  0  0  0  0  0  0
    5.8640    0.6103    0.0000 H   0  0  0  0  0  0  0  0  0  0  0  0
    5.8819   -2.7631    0.0000 H   0  0  0  0  0  0  0  0  0  0  0  0
    6.2928    1.9221    0.0000 H   0  0  0  0  0  0  0  0  0  0  0  0
    4.8709   -4.1572    0.0000 H   0  0  0  0  0  0  0  0  0  0  0  0
    9.4631    2.5902    0.0000 H   0  0  0  0  0  0  0  0  0  0  0  0
    2.8660   -1.1431    0.0000 H   0  0  0  0  0  0  0  0  0  0  0  0
    2.8660   -4.3831    0.0000 H   0  0  0  0  0  0  0  0  0  0  0  0
    8.7522    0.3535    0.0000 H   0  0  0  0  0  0  0  0  0  0  0  0
    9.6277    0.3061    0.0000 H   0  0  0  0  0  0  0  0  0  0  0  0
    9.6751    1.1816    0.0000 H   0  0  0  0  0  0  0  0  0  0  0  0
    7.0037    4.1588    0.0000 H   0  0  0  0  0  0  0  0  0  0  0  0
    6.1282    4.2062    0.0000 H   0  0  0  0  0  0  0  0  0  0  0  0
    6.0808    3.3307    0.0000 H   0  0  0  0  0  0  0  0  0  0  0  0
    9.0886    3.9646    0.0000 H   0  0  0  0  0  0  0  0  0  0  0  0
    8.6919    4.7465    0.0000 H   0  0  0  0  0  0  0  0  0  0  0  0
    7.9099    4.3498    0.0000 H   0  0  0  0  0  0  0  0  0  0  0  0
    1.4631   -1.9531    0.0000 H   0  0  0  0  0  0  0  0  0  0  0  0
    1.4631   -3.5731    0.0000 H   0  0  0  0  0  0  0  0  0  0  0  0
  1  5  1  0  0  0  0
  1  6  1  0  0  0  0
  1 29  1  0  0  0  0
  2  9  1  0  0  0  0
  2 11  1  0  0  0  0
  2 32  1  0  0  0  0
  3  4  1  0  0  0  0
  3  5  1  0  0  0  0
  3 23  1  0  0  0  0
  3 24  1  0  0  0  0
  4  8  1  0  0  0  0
  4 11  2  0  0  0  0
  5 25  1  0  0  0  0
  5 26  1  0  0  0  0
  6  7  1  0  0  0  0
  6 27  1  0  0  0  0
  6 28  1  0  0  0  0
  7 10  2  0  0  0  0
  7 12  1  0  0  0  0
  8  9  1  0  0  0  0
  8 16  2  0  0  0  0
  9 17  2  0  0  0  0
 10 15  1  0  0  0  0
 10 18  1  0  0  0  0
 11 30  1  0  0  0  0
 12 13  2  0  0  0  0
 12 31  1  0  0  0  0
 13 14  1  0  0  0  0
 13 19  1  0  0  0  0
 14 15  2  0  0  0  0
 14 21  1  0  0  0  0
 15 33  1  0  0  0  0
 16 20  1  0  0  0  0
 16 34  1  0  0  0  0
 17 22  1  0  0  0  0
 17 35  1  0  0  0  0
 18 36  1  0  0  0  0
 18 37  1  0  0  0  0
 18 38  1  0  0  0  0
 19 39  1  0  0  0  0
 19 40  1  0  0  0  0
 19 41  1  0  0  0  0
 20 22  2  0  0  0  0
 20 45  1  0  0  0  0
 21 42  1  0  0  0  0
 21 43  1  0  0  0  0
 21 44  1  0  0  0  0
 22 46  1  0  0  0  0
M  END
> <PUBCHEM_COMPOUND_CID>
30611137

> <PUBCHEM_COMPOUND_CANONICALIZED>
1

> <PUBCHEM_CACTVS_COMPLEXITY>
343

> <PUBCHEM_CACTVS_HBOND_ACCEPTOR>
1

> <PUBCHEM_CACTVS_HBOND_DONOR>
2

> <PUBCHEM_CACTVS_ROTATABLE_BOND>
5

> <PUBCHEM_CACTVS_SUBSKEYS>
AAADceB7AAAAAAAAAAAAAAAAAAAAAWAAAAAwYAAAAAAAAFgB9AAAHAAQAAAADAjBHgQ+wPLJkACgAzRnRACCgCAxAiAI2aA4ZJgIIOLAkZGEIAhgkADIyAcQgMAOwAACAAASAACAAAQAACQAAAAAAAAAAA==

> <PUBCHEM_IUPAC_OPENEYE_NAME>
2-(1H-indol-3-yl)-N-[(2,4,5-trimethylphenyl)methyl]ethanamine

> <PUBCHEM_IUPAC_CAS_NAME>
2-(1H-indol-3-yl)-N-[(2,4,5-trimethylphenyl)methyl]ethanamine

> <PUBCHEM_IUPAC_NAME>
2-(1H-indol-3-yl)-N-[(2,4,5-trimethylphenyl)methyl]ethanamine

> <PUBCHEM_IUPAC_SYSTEMATIC_NAME>
2-(1H-indol-3-yl)-N-[(2,4,5-trimethylphenyl)methyl]ethanamine

> <PUBCHEM_IUPAC_TRADITIONAL_NAME>
2-(1H-indol-3-yl)ethyl-(2,4,5-trimethylbenzyl)amine

> <PUBCHEM_IUPAC_INCHI>
InChI=1S/C20H24N2/c1-14-10-16(3)18(11-15(14)2)12-21-9-8-17-13-22-20-7-5-4-6-19(17)20/h4-7,10-11,13,21-22H,8-9,12H2,1-3H3

> <PUBCHEM_IUPAC_INCHIKEY>
ZNCGIPQPCYQDCK-UHFFFAOYSA-N

> <PUBCHEM_XLOGP3>
4.6

> <PUBCHEM_EXACT_MASS>
292.193949

> <PUBCHEM_MOLECULAR_FORMULA>
C20H24N2

> <PUBCHEM_MOLECULAR_WEIGHT>
292.41796

> <PUBCHEM_OPENEYE_CAN_SMILES>
CC1=CC(=C(C=C1C)CNCCC2=CNC3=CC=CC=C32)C

> <PUBCHEM_OPENEYE_ISO_SMILES>
CC1=CC(=C(C=C1C)CNCCC2=CNC3=CC=CC=C32)C

> <PUBCHEM_CACTVS_TPSA>
27.8

> <PUBCHEM_MONOISOTOPIC_WEIGHT>
292.193949

> <PUBCHEM_TOTAL_CHARGE>
0

> <PUBCHEM_HEAVY_ATOM_COUNT>
22

> <PUBCHEM_ATOM_DEF_STEREO_COUNT>
0

> <PUBCHEM_ATOM_UDEF_STEREO_COUNT>
0

> <PUBCHEM_BOND_DEF_STEREO_COUNT>
0

> <PUBCHEM_BOND_UDEF_STEREO_COUNT>
0

> <PUBCHEM_ISOTOPIC_ATOM_COUNT>
0

> <PUBCHEM_COMPONENT_COUNT>
1

> <PUBCHEM_CACTVS_TAUTO_COUNT>
1

> <PUBCHEM_COORDINATE_TYPE>
1
5
255

> <PUBCHEM_BONDANNOTATIONS>
10  15  8
12  13  8
13  14  8
14  15  8
16  20  8
17  22  8
2  11  8
2  9  8
20  22  8
4  11  8
4  8  8
7  10  8
7  12  8
8  16  8
8  9  8
9  17  8

$$$$
30618289
  -OEChem-03221309332D

 34 34  0     0  0  0  0  0  0999 V2000
    6.3301    3.7500    0.0000 Br  0  0  0  0  0  0  0  0  0  0  0  0
    3.7320   -0.7500    0.0000 O   0  0  0  0  0  0  0  0  0  0  0  0
    4.5981    0.7500    0.0000 C   0  0  0  0  0  0  0  0  0  0  0  0
    5.4641    1.2500    0.0000 C   0  0  0  0  0  0  0  0  0  0  0  0
    4.5981   -0.2500    0.0000 C   0  0  0  0  0  0  0  0  0  0  0  0
    5.4641    2.2500    0.0000 C   0  0  0  0  0  0  0  0  0  0  0  0
    3.7320   -1.7500    0.0000 C   0  0  0  0  0  0  0  0  0  0  0  0
    2.8660   -2.2500    0.0000 C   0  0  0  0  0  0  0  0  0  0  0  0
    4.5981   -2.2500    0.0000 C   0  0  0  0  0  0  0  0  0  0  0  0
    6.3301    2.7500    0.0000 C   0  0  0  0  0  0  0  0  0  0  0  0
    2.8660   -3.2500    0.0000 C   0  0  0  0  0  0  0  0  0  0  0  0
    4.5981   -3.2500    0.0000 C   0  0  0  0  0  0  0  0  0  0  0  0
    2.0000   -1.7500    0.0000 C   0  0  0  0  0  0  0  0  0  0  0  0
    5.4641   -1.7500    0.0000 C   0  0  0  0  0  0  0  0  0  0  0  0
    3.7320   -3.7500    0.0000 C   0  0  0  0  0  0  0  0  0  0  0  0
    4.3860    1.3326    0.0000 H   0  0  0  0  0  0  0  0  0  0  0  0
    3.9875    0.6423    0.0000 H   0  0  0  0  0  0  0  0  0  0  0  0
    5.6762    0.6674    0.0000 H   0  0  0  0  0  0  0  0  0  0  0  0
    6.0747    1.3577    0.0000 H   0  0  0  0  0  0  0  0  0  0  0  0
    4.8101   -0.8326    0.0000 H   0  0  0  0  0  0  0  0  0  0  0  0
    5.2087   -0.1423    0.0000 H   0  0  0  0  0  0  0  0  0  0  0  0
    5.2520    2.8326    0.0000 H   0  0  0  0  0  0  0  0  0  0  0  0
    4.8535    2.1423    0.0000 H   0  0  0  0  0  0  0  0  0  0  0  0
    6.5422    2.1674    0.0000 H   0  0  0  0  0  0  0  0  0  0  0  0
    6.9407    2.8577    0.0000 H   0  0  0  0  0  0  0  0  0  0  0  0
    2.3291   -3.5600    0.0000 H   0  0  0  0  0  0  0  0  0  0  0  0
    5.1350   -3.5600    0.0000 H   0  0  0  0  0  0  0  0  0  0  0  0
    2.3100   -1.2131    0.0000 H   0  0  0  0  0  0  0  0  0  0  0  0
    1.4631   -1.4400    0.0000 H   0  0  0  0  0  0  0  0  0  0  0  0
    1.6900   -2.2869    0.0000 H   0  0  0  0  0  0  0  0  0  0  0  0
    5.7741   -2.2869    0.0000 H   0  0  0  0  0  0  0  0  0  0  0  0
    6.0010   -1.4400    0.0000 H   0  0  0  0  0  0  0  0  0  0  0  0
    5.1541   -1.2131    0.0000 H   0  0  0  0  0  0  0  0  0  0  0  0
    3.7320   -4.3700    0.0000 H   0  0  0  0  0  0  0  0  0  0  0  0
  1 10  1  0  0  0  0
  2  5  1  0  0  0  0
  2  7  1  0  0  0  0
  3  4  1  0  0  0  0
  3  5  1  0  0  0  0
  3 16  1  0  0  0  0
  3 17  1  0  0  0  0
  4  6  1  0  0  0  0
  4 18  1  0  0  0  0
  4 19  1  0  0  0  0
  5 20  1  0  0  0  0
  5 21  1  0  0  0  0
  6 10  1  0  0  0  0
  6 22  1  0  0  0  0
  6 23  1  0  0  0  0
  7  8  2  0  0  0  0
  7  9  1  0  0  0  0
  8 11  1  0  0  0  0
  8 13  1  0  0  0  0
  9 12  2  0  0  0  0
  9 14  1  0  0  0  0
 10 24  1  0  0  0  0
 10 25  1  0  0  0  0
 11 15  2  0  0  0  0
 11 26  1  0  0  0  0
 12 15  1  0  0  0  0
 12 27  1  0  0  0  0
 13 28  1  0  0  0  0
 13 29  1  0  0  0  0
 13 30  1  0  0  0  0
 14 31  1  0  0  0  0
 14 32  1  0  0  0  0
 14 33  1  0  0  0  0
 15 34  1  0  0  0  0
M  END
> <PUBCHEM_COMPOUND_CID>
30618289

> <PUBCHEM_COMPOUND_CANONICALIZED>
1

> <PUBCHEM_CACTVS_COMPLEXITY>
151

> <PUBCHEM_CACTVS_HBOND_ACCEPTOR>
1

> <PUBCHEM_CACTVS_HBOND_DONOR>
0

> <PUBCHEM_CACTVS_ROTATABLE_BOND>
6

> <PUBCHEM_CACTVS_SUBSKEYS>
AAADceBwIAAAEAAAAAAAAAAAAAAAAAAAAAAwAAAAAAAAAAABAAAAGgBAAAABTASgmAIyBoAABACAAiBCAAACCAAgIAAIiAAECKgMJiKEMRqCOCCkwBEIqAeAwGAOAAACAAAIAAAAAAQAABAAAAAAAAAAAA==

> <PUBCHEM_IUPAC_OPENEYE_NAME>
2-(5-bromopentoxy)-1,3-dimethyl-benzene

> <PUBCHEM_IUPAC_CAS_NAME>
2-(5-bromopentoxy)-1,3-dimethylbenzene

> <PUBCHEM_IUPAC_NAME>
2-(5-bromopentoxy)-1,3-dimethylbenzene

> <PUBCHEM_IUPAC_SYSTEMATIC_NAME>
2-(5-bromanylpentoxy)-1,3-dimethyl-benzene

> <PUBCHEM_IUPAC_TRADITIONAL_NAME>
2-(5-bromopentoxy)-1,3-dimethyl-benzene

> <PUBCHEM_IUPAC_INCHI>
InChI=1S/C13H19BrO/c1-11-7-6-8-12(2)13(11)15-10-5-3-4-9-14/h6-8H,3-5,9-10H2,1-2H3

> <PUBCHEM_IUPAC_INCHIKEY>
GLAGQWXHCLUKNX-UHFFFAOYSA-N

> <PUBCHEM_XLOGP3>
4.9

> <PUBCHEM_EXACT_MASS>
270.061927

> <PUBCHEM_MOLECULAR_FORMULA>
C13H19BrO

> <PUBCHEM_MOLECULAR_WEIGHT>
271.19336

> <PUBCHEM_OPENEYE_CAN_SMILES>
CC1=C(C(=CC=C1)C)OCCCCCBr

> <PUBCHEM_OPENEYE_ISO_SMILES>
CC1=C(C(=CC=C1)C)OCCCCCBr

> <PUBCHEM_CACTVS_TPSA>
9.2

> <PUBCHEM_MONOISOTOPIC_WEIGHT>
270.061927

> <PUBCHEM_TOTAL_CHARGE>
0

> <PUBCHEM_HEAVY_ATOM_COUNT>
15

> <PUBCHEM_ATOM_DEF_STEREO_COUNT>
0

> <PUBCHEM_ATOM_UDEF_STEREO_COUNT>
0

> <PUBCHEM_BOND_DEF_STEREO_COUNT>
0

> <PUBCHEM_BOND_UDEF_STEREO_COUNT>
0

> <PUBCHEM_ISOTOPIC_ATOM_COUNT>
0

> <PUBCHEM_COMPONENT_COUNT>
1

> <PUBCHEM_CACTVS_TAUTO_COUNT>
1

> <PUBCHEM_COORDINATE_TYPE>
1
5
255

> <PUBCHEM_BONDANNOTATIONS>
11  15  8
12  15  8
7  8  8
7  9  8
8  11  8
9  12  8

$$$$
