65251697
  -OEChem-11301218252D

 32 33  0     0  0  0  0  0  0999 V2000
    4.6783   -1.1018    0.0000 N   0  0  0  0  0  0  0  0  0  0  0  0
    6.8994    2.9065    0.0000 N   0  0  0  0  0  0  0  0  0  0  0  0
    6.2781    1.0055    0.0000 C   0  0  0  0  0  0  0  0  0  0  0  0
    5.9674    0.0550    0.0000 C   0  0  0  0  0  0  0  0  0  0  0  0
    4.9889   -0.1513    0.0000 C   0  0  0  0  0  0  0  0  0  0  0  0
    3.7320   -1.4065    0.0000 C   0  0  0  0  0  0  0  0  0  0  0  0
    7.2286    0.6948    0.0000 C   0  0  0  0  0  0  0  0  0  0  0  0
    5.3276    1.3161    0.0000 C   0  0  0  0  0  0  0  0  0  0  0  0
    3.7320   -2.4065    0.0000 C   0  0  0  0  0  0  0  0  0  0  0  0
    5.2619   -1.9065    0.0000 C   0  0  0  0  0  0  0  0  0  0  0  0
    4.6783   -2.7112    0.0000 C   0  0  0  0  0  0  0  0  0  0  0  0
    2.8660   -0.9065    0.0000 C   0  0  0  0  0  0  0  0  0  0  0  0
    6.5888    1.9560    0.0000 C   0  0  0  0  0  0  0  0  0  0  0  0
    2.8660   -2.9065    0.0000 C   0  0  0  0  0  0  0  0  0  0  0  0
    2.0000   -1.4065    0.0000 C   0  0  0  0  0  0  0  0  0  0  0  0
    2.0000   -2.4065    0.0000 C   0  0  0  0  0  0  0  0  0  0  0  0
    5.9880   -0.5647    0.0000 H   0  0  0  0  0  0  0  0  0  0  0  0
    6.5812   -0.0324    0.0000 H   0  0  0  0  0  0  0  0  0  0  0  0
    4.9684    0.4684    0.0000 H   0  0  0  0  0  0  0  0  0  0  0  0
    4.3751   -0.0639    0.0000 H   0  0  0  0  0  0  0  0  0  0  0  0
    5.5202    1.9055    0.0000 H   0  0  0  0  0  0  0  0  0  0  0  0
    7.0360    0.1055    0.0000 H   0  0  0  0  0  0  0  0  0  0  0  0
    7.8179    0.5022    0.0000 H   0  0  0  0  0  0  0  0  0  0  0  0
    7.4212    1.2841    0.0000 H   0  0  0  0  0  0  0  0  0  0  0  0
    4.7383    1.5088    0.0000 H   0  0  0  0  0  0  0  0  0  0  0  0
    5.1350    0.7268    0.0000 H   0  0  0  0  0  0  0  0  0  0  0  0
    5.8819   -1.9065    0.0000 H   0  0  0  0  0  0  0  0  0  0  0  0
    4.8709   -3.3006    0.0000 H   0  0  0  0  0  0  0  0  0  0  0  0
    2.8660   -0.2865    0.0000 H   0  0  0  0  0  0  0  0  0  0  0  0
    2.8660   -3.5265    0.0000 H   0  0  0  0  0  0  0  0  0  0  0  0
    1.4631   -1.0965    0.0000 H   0  0  0  0  0  0  0  0  0  0  0  0
    1.4631   -2.7165    0.0000 H   0  0  0  0  0  0  0  0  0  0  0  0
  1  5  1  0  0  0  0
  1  6  1  0  0  0  0
  1 10  1  0  0  0  0
  2 13  3  0  0  0  0
  3  4  1  0  0  0  0
  3  7  1  0  0  0  0
  3  8  1  0  0  0  0
  3 13  1  0  0  0  0
  4  5  1  0  0  0  0
  4 17  1  0  0  0  0
  4 18  1  0  0  0  0
  5 19  1  0  0  0  0
  5 20  1  0  0  0  0
  6  9  1  0  0  0  0
  6 12  2  0  0  0  0
  7 22  1  0  0  0  0
  7 23  1  0  0  0  0
  7 24  1  0  0  0  0
  8 21  1  0  0  0  0
  8 25  1  0  0  0  0
  8 26  1  0  0  0  0
  9 11  1  0  0  0  0
  9 14  2  0  0  0  0
 10 11  2  0  0  0  0
 10 27  1  0  0  0  0
 11 28  1  0  0  0  0
 12 15  1  0  0  0  0
 12 29  1  0  0  0  0
 14 16  1  0  0  0  0
 14 30  1  0  0  0  0
 15 16  2  0  0  0  0
 15 31  1  0  0  0  0
 16 32  1  0  0  0  0
M  END
> <PUBCHEM_COMPOUND_CID>
65251697

> <PUBCHEM_COMPOUND_CANONICALIZED>
1

> <PUBCHEM_CACTVS_COMPLEXITY>
286

> <PUBCHEM_CACTVS_HBOND_ACCEPTOR>
1

> <PUBCHEM_CACTVS_HBOND_DONOR>
0

> <PUBCHEM_CACTVS_ROTATABLE_BOND>
3

> <PUBCHEM_CACTVS_SUBSKEYS>
AAADceBzAAAAAAAAAAAAAAAAAAAAAWAAAAAwAAAAAAAAAFgB8AAAHAAAAAAADgjBHgQ+wPMMEACwBzRnRACCgCAxAiAI2CA4ZJgIoOLAkZGEIAhggADIyA8QgIAPAAAAAAACAAAAAAAAAAQAAAAAAAAAAA==

> <PUBCHEM_IUPAC_OPENEYE_NAME>
4-indol-1-yl-2,2-dimethyl-butanenitrile

> <PUBCHEM_IUPAC_CAS_NAME>
4-(1-indolyl)-2,2-dimethylbutanenitrile

> <PUBCHEM_IUPAC_NAME>
4-indol-1-yl-2,2-dimethylbutanenitrile

> <PUBCHEM_IUPAC_SYSTEMATIC_NAME>
4-indol-1-yl-2,2-dimethyl-butanenitrile

> <PUBCHEM_IUPAC_TRADITIONAL_NAME>
4-indol-1-yl-2,2-dimethyl-butyronitrile

> <PUBCHEM_IUPAC_INCHI>
InChI=1S/C14H16N2/c1-14(2,11-15)8-10-16-9-7-12-5-3-4-6-13(12)16/h3-7,9H,8,10H2,1-2H3

> <PUBCHEM_IUPAC_INCHIKEY>
XNVKMCYRILMDKI-UHFFFAOYSA-N

> <PUBCHEM_XLOGP3>
3.6

> <PUBCHEM_EXACT_MASS>
212.131349

> <PUBCHEM_MOLECULAR_FORMULA>
C14H16N2

> <PUBCHEM_MOLECULAR_WEIGHT>
212.29024

> <PUBCHEM_OPENEYE_CAN_SMILES>
CC(C)(CCN1C=CC2=CC=CC=C21)C#N

> <PUBCHEM_OPENEYE_ISO_SMILES>
CC(C)(CCN1C=CC2=CC=CC=C21)C#N

> <PUBCHEM_CACTVS_TPSA>
28.7

> <PUBCHEM_MONOISOTOPIC_WEIGHT>
212.131349

> <PUBCHEM_TOTAL_CHARGE>
0

> <PUBCHEM_HEAVY_ATOM_COUNT>
16

> <PUBCHEM_ATOM_DEF_STEREO_COUNT>
0

> <PUBCHEM_ATOM_UDEF_STEREO_COUNT>
0

> <PUBCHEM_BOND_DEF_STEREO_COUNT>
0

> <PUBCHEM_BOND_UDEF_STEREO_COUNT>
0

> <PUBCHEM_ISOTOPIC_ATOM_COUNT>
0

> <PUBCHEM_COMPONENT_COUNT>
1

> <PUBCHEM_CACTVS_TAUTO_COUNT>
1

> <PUBCHEM_COORDINATE_TYPE>
1
5
255

> <PUBCHEM_BONDANNOTATIONS>
1  10  8
1  6  8
10  11  8
12  15  8
14  16  8
15  16  8
6  12  8
6  9  8
9  11  8
9  14  8

$$$$
65251698
  -OEChem-11301218252D

 35 36  0     0  0  0  0  0  0999 V2000
    4.6783   -1.1018    0.0000 N   0  0  0  0  0  0  0  0  0  0  0  0
    6.8994    2.9065    0.0000 N   0  0  0  0  0  0  0  0  0  0  0  0
    5.9674    0.0550    0.0000 C   0  0  0  0  0  0  0  0  0  0  0  0
    6.2781    1.0055    0.0000 C   0  0  0  0  0  0  0  0  0  0  0  0
    4.9889   -0.1513    0.0000 C   0  0  0  0  0  0  0  0  0  0  0  0
    3.7320   -1.4065    0.0000 C   0  0  0  0  0  0  0  0  0  0  0  0
    5.2619   -1.9065    0.0000 C   0  0  0  0  0  0  0  0  0  0  0  0
    3.7320   -2.4065    0.0000 C   0  0  0  0  0  0  0  0  0  0  0  0
    7.2286    0.6948    0.0000 C   0  0  0  0  0  0  0  0  0  0  0  0
    5.3276    1.3161    0.0000 C   0  0  0  0  0  0  0  0  0  0  0  0
    4.6783   -2.7112    0.0000 C   0  0  0  0  0  0  0  0  0  0  0  0
    2.8660   -0.9065    0.0000 C   0  0  0  0  0  0  0  0  0  0  0  0
    6.2619   -1.9065    0.0000 C   0  0  0  0  0  0  0  0  0  0  0  0
    6.5888    1.9560    0.0000 C   0  0  0  0  0  0  0  0  0  0  0  0
    2.8660   -2.9065    0.0000 C   0  0  0  0  0  0  0  0  0  0  0  0
    2.0000   -1.4065    0.0000 C   0  0  0  0  0  0  0  0  0  0  0  0
    2.0000   -2.4065    0.0000 C   0  0  0  0  0  0  0  0  0  0  0  0
    5.9880   -0.5647    0.0000 H   0  0  0  0  0  0  0  0  0  0  0  0
    6.5812   -0.0324    0.0000 H   0  0  0  0  0  0  0  0  0  0  0  0
    4.9684    0.4684    0.0000 H   0  0  0  0  0  0  0  0  0  0  0  0
    4.3751   -0.0639    0.0000 H   0  0  0  0  0  0  0  0  0  0  0  0
    7.0360    0.1055    0.0000 H   0  0  0  0  0  0  0  0  0  0  0  0
    7.8179    0.5022    0.0000 H   0  0  0  0  0  0  0  0  0  0  0  0
    7.4212    1.2841    0.0000 H   0  0  0  0  0  0  0  0  0  0  0  0
    5.5202    1.9055    0.0000 H   0  0  0  0  0  0  0  0  0  0  0  0
    4.7383    1.5088    0.0000 H   0  0  0  0  0  0  0  0  0  0  0  0
    5.1350    0.7268    0.0000 H   0  0  0  0  0  0  0  0  0  0  0  0
    4.8709   -3.3006    0.0000 H   0  0  0  0  0  0  0  0  0  0  0  0
    2.8660   -0.2865    0.0000 H   0  0  0  0  0  0  0  0  0  0  0  0
    6.2619   -2.5265    0.0000 H   0  0  0  0  0  0  0  0  0  0  0  0
    6.8819   -1.9065    0.0000 H   0  0  0  0  0  0  0  0  0  0  0  0
    6.2619   -1.2865    0.0000 H   0  0  0  0  0  0  0  0  0  0  0  0
    2.8660   -3.5265    0.0000 H   0  0  0  0  0  0  0  0  0  0  0  0
    1.4631   -1.0965    0.0000 H   0  0  0  0  0  0  0  0  0  0  0  0
    1.4631   -2.7165    0.0000 H   0  0  0  0  0  0  0  0  0  0  0  0
  1  5  1  0  0  0  0
  1  6  1  0  0  0  0
  1  7  1  0  0  0  0
  2 14  3  0  0  0  0
  3  4  1  0  0  0  0
  3  5  1  0  0  0  0
  3 18  1  0  0  0  0
  3 19  1  0  0  0  0
  4  9  1  0  0  0  0
  4 10  1  0  0  0  0
  4 14  1  0  0  0  0
  5 20  1  0  0  0  0
  5 21  1  0  0  0  0
  6  8  1  0  0  0  0
  6 12  2  0  0  0  0
  7 11  2  0  0  0  0
  7 13  1  0  0  0  0
  8 11  1  0  0  0  0
  8 15  2  0  0  0  0
  9 22  1  0  0  0  0
  9 23  1  0  0  0  0
  9 24  1  0  0  0  0
 10 25  1  0  0  0  0
 10 26  1  0  0  0  0
 10 27  1  0  0  0  0
 11 28  1  0  0  0  0
 12 16  1  0  0  0  0
 12 29  1  0  0  0  0
 13 30  1  0  0  0  0
 13 31  1  0  0  0  0
 13 32  1  0  0  0  0
 15 17  1  0  0  0  0
 15 33  1  0  0  0  0
 16 17  2  0  0  0  0
 16 34  1  0  0  0  0
 17 35  1  0  0  0  0
M  END
> <PUBCHEM_COMPOUND_CID>
65251698

> <PUBCHEM_COMPOUND_CANONICALIZED>
1

> <PUBCHEM_CACTVS_COMPLEXITY>
312

> <PUBCHEM_CACTVS_HBOND_ACCEPTOR>
1

> <PUBCHEM_CACTVS_HBOND_DONOR>
0

> <PUBCHEM_CACTVS_ROTATABLE_BOND>
3

> <PUBCHEM_CACTVS_SUBSKEYS>
AAADceBzAAAAAAAAAAAAAAAAAAAAAWAAAAAwAAAAAAAAAFgB8AAAHAAAAAAADgjBHgQywPMMEACwByRiRACCgCAhAiAI2CA4ZJgIoOLAkZGEIAhggADIyA8QgIAPAAAAAAACAAAAAAAAAAQAAAAAAAAAAA==

> <PUBCHEM_IUPAC_OPENEYE_NAME>
2,2-dimethyl-4-(2-methylindol-1-yl)butanenitrile

> <PUBCHEM_IUPAC_CAS_NAME>
2,2-dimethyl-4-(2-methyl-1-indolyl)butanenitrile

> <PUBCHEM_IUPAC_NAME>
2,2-dimethyl-4-(2-methylindol-1-yl)butanenitrile

> <PUBCHEM_IUPAC_SYSTEMATIC_NAME>
2,2-dimethyl-4-(2-methylindol-1-yl)butanenitrile

> <PUBCHEM_IUPAC_TRADITIONAL_NAME>
2,2-dimethyl-4-(2-methylindol-1-yl)butyronitrile

> <PUBCHEM_IUPAC_INCHI>
InChI=1S/C15H18N2/c1-12-10-13-6-4-5-7-14(13)17(12)9-8-15(2,3)11-16/h4-7,10H,8-9H2,1-3H3

> <PUBCHEM_IUPAC_INCHIKEY>
AIJKYFRTEQLPIR-UHFFFAOYSA-N

> <PUBCHEM_XLOGP3>
3.7

> <PUBCHEM_EXACT_MASS>
226.146999

> <PUBCHEM_MOLECULAR_FORMULA>
C15H18N2

> <PUBCHEM_MOLECULAR_WEIGHT>
226.31682

> <PUBCHEM_OPENEYE_CAN_SMILES>
CC1=CC2=CC=CC=C2N1CCC(C)(C)C#N

> <PUBCHEM_OPENEYE_ISO_SMILES>
CC1=CC2=CC=CC=C2N1CCC(C)(C)C#N

> <PUBCHEM_CACTVS_TPSA>
28.7

> <PUBCHEM_MONOISOTOPIC_WEIGHT>
226.146999

> <PUBCHEM_TOTAL_CHARGE>
0

> <PUBCHEM_HEAVY_ATOM_COUNT>
17

> <PUBCHEM_ATOM_DEF_STEREO_COUNT>
0

> <PUBCHEM_ATOM_UDEF_STEREO_COUNT>
0

> <PUBCHEM_BOND_DEF_STEREO_COUNT>
0

> <PUBCHEM_BOND_UDEF_STEREO_COUNT>
0

> <PUBCHEM_ISOTOPIC_ATOM_COUNT>
0

> <PUBCHEM_COMPONENT_COUNT>
1

> <PUBCHEM_CACTVS_TAUTO_COUNT>
1

> <PUBCHEM_COORDINATE_TYPE>
1
5
255

> <PUBCHEM_BONDANNOTATIONS>
1  6  8
1  7  8
12  16  8
15  17  8
16  17  8
6  12  8
6  8  8
7  11  8
8  11  8
8  15  8

$$$$
