24654410
  -OEChem-11301217352D

 23 24  0     1  0  0  0  0  0999 V2000
    5.0981    3.6830    0.0000 Cl  0  0  0  0  0  0  0  0  0  0  0  0
    5.9641    2.1830    0.0000 Cl  0  0  0  0  0  0  0  0  0  0  0  0
    2.0000   -0.6830    0.0000 Cl  0  0  0  0  0  0  0  0  0  0  0  0
    3.7320   -3.6830    0.0000 Cl  0  0  0  0  0  0  0  0  0  0  0  0
    5.4641    0.3170    0.0000 O   0  0  0  0  0  0  0  0  0  0  0  0
    3.7320    0.3170    0.0000 N   0  0  0  0  0  0  0  0  0  0  0  0
    4.5981    1.8170    0.0000 C   0  0  3  0  0  0  0  0  0  0  0  0
    5.0981    2.6830    0.0000 C   0  0  0  0  0  0  0  0  0  0  0  0
    4.0981    2.6830    0.0000 C   0  0  0  0  0  0  0  0  0  0  0  0
    4.5981    0.8170    0.0000 C   0  0  0  0  0  0  0  0  0  0  0  0
    3.7320   -0.6830    0.0000 C   0  0  0  0  0  0  0  0  0  0  0  0
    2.8660   -1.1830    0.0000 C   0  0  0  0  0  0  0  0  0  0  0  0
    4.5981   -1.1830    0.0000 C   0  0  0  0  0  0  0  0  0  0  0  0
    2.8660   -2.1830    0.0000 C   0  0  0  0  0  0  0  0  0  0  0  0
    4.5981   -2.1830    0.0000 C   0  0  0  0  0  0  0  0  0  0  0  0
    3.7320   -2.6830    0.0000 C   0  0  0  0  0  0  0  0  0  0  0  0
    5.1970    1.6565    0.0000 H   0  0  0  0  0  0  0  0  0  0  0  0
    3.9904    3.2936    0.0000 H   0  0  0  0  0  0  0  0  0  0  0  0
    3.5155    2.4710    0.0000 H   0  0  0  0  0  0  0  0  0  0  0  0
    3.1951    0.6270    0.0000 H   0  0  0  0  0  0  0  0  0  0  0  0
    5.1350   -0.8730    0.0000 H   0  0  0  0  0  0  0  0  0  0  0  0
    2.3291   -2.4930    0.0000 H   0  0  0  0  0  0  0  0  0  0  0  0
    5.1350   -2.4930    0.0000 H   0  0  0  0  0  0  0  0  0  0  0  0
  1  8  1  0  0  0  0
  2  8  1  0  0  0  0
  3 12  1  0  0  0  0
  4 16  1  0  0  0  0
  5 10  2  0  0  0  0
  6 10  1  0  0  0  0
  6 11  1  0  0  0  0
  6 20  1  0  0  0  0
  7  8  1  0  0  0  0
  7  9  1  0  0  0  0
  7 10  1  0  0  0  0
  7 17  1  0  0  0  0
  8  9  1  0  0  0  0
  9 18  1  0  0  0  0
  9 19  1  0  0  0  0
 11 12  2  0  0  0  0
 11 13  1  0  0  0  0
 12 14  1  0  0  0  0
 13 15  2  0  0  0  0
 13 21  1  0  0  0  0
 14 16  2  0  0  0  0
 14 22  1  0  0  0  0
 15 16  1  0  0  0  0
 15 23  1  0  0  0  0
M  END
> <PUBCHEM_COMPOUND_CID>
24654410

> <PUBCHEM_COMPOUND_CANONICALIZED>
1

> <PUBCHEM_CACTVS_COMPLEXITY>
297

> <PUBCHEM_CACTVS_HBOND_ACCEPTOR>
1

> <PUBCHEM_CACTVS_HBOND_DONOR>
1

> <PUBCHEM_CACTVS_ROTATABLE_BOND>
2

> <PUBCHEM_CACTVS_SUBSKEYS>
AAADcYByIAAHAAAAAAAAAAAAGAAAAAAAAAAwAAAAAAAAAAABAAAAHgIQAAAADQqBkKAwwILAAACIACVSUACCAAAhBwAIiAEAZogIIDLBk5HEIAhglADIyAcQAAAAAABAAACAABAAAIAAAQAAIAAAAAAAAA==

> <PUBCHEM_IUPAC_OPENEYE_NAME>
2,2-dichloro-N-(2,4-dichlorophenyl)cyclopropanecarboxamide

> <PUBCHEM_IUPAC_CAS_NAME>
2,2-dichloro-N-(2,4-dichlorophenyl)-1-cyclopropanecarboxamide

> <PUBCHEM_IUPAC_NAME>
2,2-dichloro-N-(2,4-dichlorophenyl)cyclopropane-1-carboxamide

> <PUBCHEM_IUPAC_SYSTEMATIC_NAME>
2,2-bis(chloranyl)-N-(2,4-dichlorophenyl)cyclopropane-1-carboxamide

> <PUBCHEM_IUPAC_TRADITIONAL_NAME>
2,2-dichloro-N-(2,4-dichlorophenyl)cyclopropanecarboxamide

> <PUBCHEM_IUPAC_INCHI>
InChI=1S/C10H7Cl4NO/c11-5-1-2-8(7(12)3-5)15-9(16)6-4-10(6,13)14/h1-3,6H,4H2,(H,15,16)

> <PUBCHEM_IUPAC_INCHIKEY>
QGPBUOQYTNYPNT-UHFFFAOYSA-N

> <PUBCHEM_XLOGP3>
3.4

> <PUBCHEM_EXACT_MASS>
298.925224

> <PUBCHEM_MOLECULAR_FORMULA>
C10H7Cl4NO

> <PUBCHEM_MOLECULAR_WEIGHT>
298.98068

> <PUBCHEM_OPENEYE_CAN_SMILES>
C1C(C1(Cl)Cl)C(=O)NC2=C(C=C(C=C2)Cl)Cl

> <PUBCHEM_OPENEYE_ISO_SMILES>
C1C(C1(Cl)Cl)C(=O)NC2=C(C=C(C=C2)Cl)Cl

> <PUBCHEM_CACTVS_TPSA>
29.1

> <PUBCHEM_MONOISOTOPIC_WEIGHT>
296.928175

> <PUBCHEM_TOTAL_CHARGE>
0

> <PUBCHEM_HEAVY_ATOM_COUNT>
16

> <PUBCHEM_ATOM_DEF_STEREO_COUNT>
0

> <PUBCHEM_ATOM_UDEF_STEREO_COUNT>
1

> <PUBCHEM_BOND_DEF_STEREO_COUNT>
0

> <PUBCHEM_BOND_UDEF_STEREO_COUNT>
0

> <PUBCHEM_ISOTOPIC_ATOM_COUNT>
0

> <PUBCHEM_COMPONENT_COUNT>
1

> <PUBCHEM_CACTVS_TAUTO_COUNT>
3

> <PUBCHEM_COORDINATE_TYPE>
1
5
255

> <PUBCHEM_BONDANNOTATIONS>
11  12  8
11  13  8
12  14  8
13  15  8
14  16  8
15  16  8
7  10  3

$$$$
24654640
  -OEChem-11301217352D

 26 27  0     1  0  0  0  0  0999 V2000
    3.7320   -3.6830    0.0000 Br  0  0  0  0  0  0  0  0  0  0  0  0
    5.0981    3.6830    0.0000 Cl  0  0  0  0  0  0  0  0  0  0  0  0
    5.9641    2.1830    0.0000 Cl  0  0  0  0  0  0  0  0  0  0  0  0
    5.4641    0.3170    0.0000 O   0  0  0  0  0  0  0  0  0  0  0  0
    3.7320    0.3170    0.0000 N   0  0  0  0  0  0  0  0  0  0  0  0
    4.5981    1.8170    0.0000 C   0  0  3  0  0  0  0  0  0  0  0  0
    5.0981    2.6830    0.0000 C   0  0  0  0  0  0  0  0  0  0  0  0
    4.0981    2.6830    0.0000 C   0  0  0  0  0  0  0  0  0  0  0  0
    4.5981    0.8170    0.0000 C   0  0  0  0  0  0  0  0  0  0  0  0
    3.7320   -0.6830    0.0000 C   0  0  0  0  0  0  0  0  0  0  0  0
    2.8660   -1.1830    0.0000 C   0  0  0  0  0  0  0  0  0  0  0  0
    4.5981   -1.1830    0.0000 C   0  0  0  0  0  0  0  0  0  0  0  0
    2.8660   -2.1830    0.0000 C   0  0  0  0  0  0  0  0  0  0  0  0
    2.0000   -0.6830    0.0000 C   0  0  0  0  0  0  0  0  0  0  0  0
    4.5981   -2.1830    0.0000 C   0  0  0  0  0  0  0  0  0  0  0  0
    3.7320   -2.6830    0.0000 C   0  0  0  0  0  0  0  0  0  0  0  0
    5.1970    1.6565    0.0000 H   0  0  0  0  0  0  0  0  0  0  0  0
    3.9904    3.2936    0.0000 H   0  0  0  0  0  0  0  0  0  0  0  0
    3.5155    2.4710    0.0000 H   0  0  0  0  0  0  0  0  0  0  0  0
    3.1951    0.6270    0.0000 H   0  0  0  0  0  0  0  0  0  0  0  0
    5.1350   -0.8730    0.0000 H   0  0  0  0  0  0  0  0  0  0  0  0
    2.3291   -2.4930    0.0000 H   0  0  0  0  0  0  0  0  0  0  0  0
    2.3100   -0.1461    0.0000 H   0  0  0  0  0  0  0  0  0  0  0  0
    1.4631   -0.3730    0.0000 H   0  0  0  0  0  0  0  0  0  0  0  0
    1.6900   -1.2200    0.0000 H   0  0  0  0  0  0  0  0  0  0  0  0
    5.1350   -2.4930    0.0000 H   0  0  0  0  0  0  0  0  0  0  0  0
  1 16  1  0  0  0  0
  2  7  1  0  0  0  0
  3  7  1  0  0  0  0
  4  9  2  0  0  0  0
  5  9  1  0  0  0  0
  5 10  1  0  0  0  0
  5 20  1  0  0  0  0
  6  7  1  0  0  0  0
  6  8  1  0  0  0  0
  6  9  1  0  0  0  0
  6 17  1  0  0  0  0
  7  8  1  0  0  0  0
  8 18  1  0  0  0  0
  8 19  1  0  0  0  0
 10 11  2  0  0  0  0
 10 12  1  0  0  0  0
 11 13  1  0  0  0  0
 11 14  1  0  0  0  0
 12 15  2  0  0  0  0
 12 21  1  0  0  0  0
 13 16  2  0  0  0  0
 13 22  1  0  0  0  0
 14 23  1  0  0  0  0
 14 24  1  0  0  0  0
 14 25  1  0  0  0  0
 15 16  1  0  0  0  0
 15 26  1  0  0  0  0
M  END
> <PUBCHEM_COMPOUND_CID>
24654640

> <PUBCHEM_COMPOUND_CANONICALIZED>
1

> <PUBCHEM_CACTVS_COMPLEXITY>
298

> <PUBCHEM_CACTVS_HBOND_ACCEPTOR>
1

> <PUBCHEM_CACTVS_HBOND_DONOR>
1

> <PUBCHEM_CACTVS_ROTATABLE_BOND>
2

> <PUBCHEM_CACTVS_SUBSKEYS>
AAADccByIAAGEAAAAAAAAAAAGAAAAAAAAAAwAAAAAAAAAAABAAAAHgJQAAABrQqBmIAywILAAACIAiVSUACCAAAhAgQIiAEAZqgIIDLBkZGEIAhglADIyhcQgAAOAAAgEAACAAAAAEAgAAQAAAAAAAAAAA==

> <PUBCHEM_IUPAC_OPENEYE_NAME>
N-(4-bromo-2-methyl-phenyl)-2,2-dichloro-cyclopropanecarboxamide

> <PUBCHEM_IUPAC_CAS_NAME>
N-(4-bromo-2-methylphenyl)-2,2-dichloro-1-cyclopropanecarboxamide

> <PUBCHEM_IUPAC_NAME>
N-(4-bromo-2-methylphenyl)-2,2-dichlorocyclopropane-1-carboxamide

> <PUBCHEM_IUPAC_SYSTEMATIC_NAME>
N-(4-bromanyl-2-methyl-phenyl)-2,2-bis(chloranyl)cyclopropane-1-carboxamide

> <PUBCHEM_IUPAC_TRADITIONAL_NAME>
N-(4-bromo-2-methyl-phenyl)-2,2-dichloro-cyclopropanecarboxamide

> <PUBCHEM_IUPAC_INCHI>
InChI=1S/C11H10BrCl2NO/c1-6-4-7(12)2-3-9(6)15-10(16)8-5-11(8,13)14/h2-4,8H,5H2,1H3,(H,15,16)

> <PUBCHEM_IUPAC_INCHIKEY>
JOIUCUNODOWZOI-UHFFFAOYSA-N

> <PUBCHEM_XLOGP3>
3.3

> <PUBCHEM_EXACT_MASS>
320.932281

> <PUBCHEM_MOLECULAR_FORMULA>
C11H10BrCl2NO

> <PUBCHEM_MOLECULAR_WEIGHT>
323.0132

> <PUBCHEM_OPENEYE_CAN_SMILES>
CC1=C(C=CC(=C1)Br)NC(=O)C2CC2(Cl)Cl

> <PUBCHEM_OPENEYE_ISO_SMILES>
CC1=C(C=CC(=C1)Br)NC(=O)C2CC2(Cl)Cl

> <PUBCHEM_CACTVS_TPSA>
29.1

> <PUBCHEM_MONOISOTOPIC_WEIGHT>
320.932281

> <PUBCHEM_TOTAL_CHARGE>
0

> <PUBCHEM_HEAVY_ATOM_COUNT>
16

> <PUBCHEM_ATOM_DEF_STEREO_COUNT>
0

> <PUBCHEM_ATOM_UDEF_STEREO_COUNT>
1

> <PUBCHEM_BOND_DEF_STEREO_COUNT>
0

> <PUBCHEM_BOND_UDEF_STEREO_COUNT>
0

> <PUBCHEM_ISOTOPIC_ATOM_COUNT>
0

> <PUBCHEM_COMPONENT_COUNT>
1

> <PUBCHEM_CACTVS_TAUTO_COUNT>
3

> <PUBCHEM_COORDINATE_TYPE>
1
5
255

> <PUBCHEM_BONDANNOTATIONS>
10  11  8
10  12  8
11  13  8
12  15  8
13  16  8
15  16  8
6  9  3

$$$$
24657980
  -OEChem-11301217362D

 34 35  0     1  0  0  0  0  0999 V2000
    2.0000   -3.4330    0.0000 Cl  0  0  0  0  0  0  0  0  0  0  0  0
    5.4641   -0.4330    0.0000 O   0  0  0  0  0  0  0  0  0  0  0  0
    4.5981    1.0670    0.0000 N   0  0  0  0  0  0  0  0  0  0  0  0
    3.7320   -0.4330    0.0000 N   0  0  0  0  0  0  0  0  0  0  0  0
    5.4641    2.5670    0.0000 C   0  0  0  0  0  0  0  0  0  0  0  0
    5.9641    3.4330    0.0000 C   0  0  0  0  0  0  0  0  0  0  0  0
    4.9641    3.4330    0.0000 C   0  0  0  0  0  0  0  0  0  0  0  0
    5.4641    1.5670    0.0000 C   0  0  3  0  0  0  0  0  0  0  0  0
    6.3301    1.0670    0.0000 C   0  0  0  0  0  0  0  0  0  0  0  0
    3.7320    1.5670    0.0000 C   0  0  0  0  0  0  0  0  0  0  0  0
    4.5981    0.0670    0.0000 C   0  0  0  0  0  0  0  0  0  0  0  0
    3.7320   -1.4330    0.0000 C   0  0  0  0  0  0  0  0  0  0  0  0
    2.8660   -1.9330    0.0000 C   0  0  0  0  0  0  0  0  0  0  0  0
    4.5981   -1.9330    0.0000 C   0  0  0  0  0  0  0  0  0  0  0  0
    2.8660   -2.9330    0.0000 C   0  0  0  0  0  0  0  0  0  0  0  0
    4.5981   -2.9330    0.0000 C   0  0  0  0  0  0  0  0  0  0  0  0
    3.7320   -3.4330    0.0000 C   0  0  0  0  0  0  0  0  0  0  0  0
    6.0630    2.4065    0.0000 H   0  0  0  0  0  0  0  0  0  0  0  0
    6.5467    3.2210    0.0000 H   0  0  0  0  0  0  0  0  0  0  0  0
    6.0718    4.0436    0.0000 H   0  0  0  0  0  0  0  0  0  0  0  0
    4.8564    4.0436    0.0000 H   0  0  0  0  0  0  0  0  0  0  0  0
    4.3815    3.2210    0.0000 H   0  0  0  0  0  0  0  0  0  0  0  0
    5.4641    0.9470    0.0000 H   0  0  0  0  0  0  0  0  0  0  0  0
    6.0201    0.5301    0.0000 H   0  0  0  0  0  0  0  0  0  0  0  0
    6.8671    0.7570    0.0000 H   0  0  0  0  0  0  0  0  0  0  0  0
    6.6401    1.6039    0.0000 H   0  0  0  0  0  0  0  0  0  0  0  0
    4.0420    2.1039    0.0000 H   0  0  0  0  0  0  0  0  0  0  0  0
    3.1951    1.8770    0.0000 H   0  0  0  0  0  0  0  0  0  0  0  0
    3.4220    1.0300    0.0000 H   0  0  0  0  0  0  0  0  0  0  0  0
    3.1951   -0.1230    0.0000 H   0  0  0  0  0  0  0  0  0  0  0  0
    2.3291   -1.6230    0.0000 H   0  0  0  0  0  0  0  0  0  0  0  0
    5.1350   -1.6230    0.0000 H   0  0  0  0  0  0  0  0  0  0  0  0
    5.1350   -3.2430    0.0000 H   0  0  0  0  0  0  0  0  0  0  0  0
    3.7320   -4.0530    0.0000 H   0  0  0  0  0  0  0  0  0  0  0  0
  1 15  1  0  0  0  0
  2 11  2  0  0  0  0
  3  8  1  0  0  0  0
  3 10  1  0  0  0  0
  3 11  1  0  0  0  0
  4 11  1  0  0  0  0
  4 12  1  0  0  0  0
  4 30  1  0  0  0  0
  5  6  1  0  0  0  0
  5  7  1  0  0  0  0
  5  8  1  0  0  0  0
  5 18  1  0  0  0  0
  6  7  1  0  0  0  0
  6 19  1  0  0  0  0
  6 20  1  0  0  0  0
  7 21  1  0  0  0  0
  7 22  1  0  0  0  0
  8  9  1  0  0  0  0
  8 23  1  0  0  0  0
  9 24  1  0  0  0  0
  9 25  1  0  0  0  0
  9 26  1  0  0  0  0
 10 27  1  0  0  0  0
 10 28  1  0  0  0  0
 10 29  1  0  0  0  0
 12 13  2  0  0  0  0
 12 14  1  0  0  0  0
 13 15  1  0  0  0  0
 13 31  1  0  0  0  0
 14 16  2  0  0  0  0
 14 32  1  0  0  0  0
 15 17  2  0  0  0  0
 16 17  1  0  0  0  0
 16 33  1  0  0  0  0
 17 34  1  0  0  0  0
M  END
> <PUBCHEM_COMPOUND_CID>
24657980

> <PUBCHEM_COMPOUND_CANONICALIZED>
1

> <PUBCHEM_CACTVS_COMPLEXITY>
281

> <PUBCHEM_CACTVS_HBOND_ACCEPTOR>
1

> <PUBCHEM_CACTVS_HBOND_DONOR>
1

> <PUBCHEM_CACTVS_ROTATABLE_BOND>
3

> <PUBCHEM_CACTVS_SUBSKEYS>
AAADceBzIAAEAAAAAAAAAAAAGAAAAAAAAAAwAAAAAAAAAAABAAAAHgIQAAAADSrBECQzwIPAAACIACRCUACCAAAhBwAIiAAIZoiIICLBk5GEIAholgJIyCcQAAAIAAAAAAIAAAAAAAAABAAAAAAAAAAAAA==

> <PUBCHEM_IUPAC_OPENEYE_NAME>
3-(3-chlorophenyl)-1-(1-cyclopropylethyl)-1-methyl-urea

> <PUBCHEM_IUPAC_CAS_NAME>
3-(3-chlorophenyl)-1-(1-cyclopropylethyl)-1-methylurea

> <PUBCHEM_IUPAC_NAME>
3-(3-chlorophenyl)-1-(1-cyclopropylethyl)-1-methylurea

> <PUBCHEM_IUPAC_SYSTEMATIC_NAME>
3-(3-chlorophenyl)-1-(1-cyclopropylethyl)-1-methyl-urea

> <PUBCHEM_IUPAC_TRADITIONAL_NAME>
3-(3-chlorophenyl)-1-(1-cyclopropylethyl)-1-methyl-urea

> <PUBCHEM_IUPAC_INCHI>
InChI=1S/C13H17ClN2O/c1-9(10-6-7-10)16(2)13(17)15-12-5-3-4-11(14)8-12/h3-5,8-10H,6-7H2,1-2H3,(H,15,17)

> <PUBCHEM_IUPAC_INCHIKEY>
ZRSMPZHNEBJXAE-UHFFFAOYSA-N

> <PUBCHEM_XLOGP3>
3.2

> <PUBCHEM_EXACT_MASS>
252.102941

> <PUBCHEM_MOLECULAR_FORMULA>
C13H17ClN2O

> <PUBCHEM_MOLECULAR_WEIGHT>
252.73988

> <PUBCHEM_OPENEYE_CAN_SMILES>
CC(C1CC1)N(C)C(=O)NC2=CC(=CC=C2)Cl

> <PUBCHEM_OPENEYE_ISO_SMILES>
CC(C1CC1)N(C)C(=O)NC2=CC(=CC=C2)Cl

> <PUBCHEM_CACTVS_TPSA>
32.3

> <PUBCHEM_MONOISOTOPIC_WEIGHT>
252.102941

> <PUBCHEM_TOTAL_CHARGE>
0

> <PUBCHEM_HEAVY_ATOM_COUNT>
17

> <PUBCHEM_ATOM_DEF_STEREO_COUNT>
0

> <PUBCHEM_ATOM_UDEF_STEREO_COUNT>
1

> <PUBCHEM_BOND_DEF_STEREO_COUNT>
0

> <PUBCHEM_BOND_UDEF_STEREO_COUNT>
0

> <PUBCHEM_ISOTOPIC_ATOM_COUNT>
0

> <PUBCHEM_COMPONENT_COUNT>
1

> <PUBCHEM_CACTVS_TAUTO_COUNT>
2

> <PUBCHEM_COORDINATE_TYPE>
1
5
255

> <PUBCHEM_BONDANNOTATIONS>
12  13  8
12  14  8
13  15  8
14  16  8
15  17  8
16  17  8
8  9  3

$$$$
24657981
  -OEChem-11301217362D

 34 35  0     1  0  0  0  0  0999 V2000
    2.0000   -2.9330    0.0000 Cl  0  0  0  0  0  0  0  0  0  0  0  0
    3.7320   -3.9330    0.0000 Cl  0  0  0  0  0  0  0  0  0  0  0  0
    5.4641    0.0670    0.0000 O   0  0  0  0  0  0  0  0  0  0  0  0
    4.5981    1.5670    0.0000 N   0  0  0  0  0  0  0  0  0  0  0  0
    3.7320    0.0670    0.0000 N   0  0  0  0  0  0  0  0  0  0  0  0
    5.4641    3.0670    0.0000 C   0  0  0  0  0  0  0  0  0  0  0  0
    5.9641    3.9330    0.0000 C   0  0  0  0  0  0  0  0  0  0  0  0
    4.9641    3.9330    0.0000 C   0  0  0  0  0  0  0  0  0  0  0  0
    5.4641    2.0670    0.0000 C   0  0  3  0  0  0  0  0  0  0  0  0
    6.3301    1.5670    0.0000 C   0  0  0  0  0  0  0  0  0  0  0  0
    3.7320    2.0670    0.0000 C   0  0  0  0  0  0  0  0  0  0  0  0
    4.5981    0.5670    0.0000 C   0  0  0  0  0  0  0  0  0  0  0  0
    3.7320   -0.9330    0.0000 C   0  0  0  0  0  0  0  0  0  0  0  0
    2.8660   -1.4330    0.0000 C   0  0  0  0  0  0  0  0  0  0  0  0
    4.5981   -1.4330    0.0000 C   0  0  0  0  0  0  0  0  0  0  0  0
    2.8660   -2.4330    0.0000 C   0  0  0  0  0  0  0  0  0  0  0  0
    4.5981   -2.4330    0.0000 C   0  0  0  0  0  0  0  0  0  0  0  0
    3.7320   -2.9330    0.0000 C   0  0  0  0  0  0  0  0  0  0  0  0
    6.0630    2.9065    0.0000 H   0  0  0  0  0  0  0  0  0  0  0  0
    4.8564    4.5436    0.0000 H   0  0  0  0  0  0  0  0  0  0  0  0
    4.3815    3.7210    0.0000 H   0  0  0  0  0  0  0  0  0  0  0  0
    6.5467    3.7210    0.0000 H   0  0  0  0  0  0  0  0  0  0  0  0
    6.0718    4.5436    0.0000 H   0  0  0  0  0  0  0  0  0  0  0  0
    5.4641    1.4470    0.0000 H   0  0  0  0  0  0  0  0  0  0  0  0
    6.0201    1.0300    0.0000 H   0  0  0  0  0  0  0  0  0  0  0  0
    6.8671    1.2570    0.0000 H   0  0  0  0  0  0  0  0  0  0  0  0
    6.6401    2.1039    0.0000 H   0  0  0  0  0  0  0  0  0  0  0  0
    4.0420    2.6039    0.0000 H   0  0  0  0  0  0  0  0  0  0  0  0
    3.1951    2.3770    0.0000 H   0  0  0  0  0  0  0  0  0  0  0  0
    3.4220    1.5300    0.0000 H   0  0  0  0  0  0  0  0  0  0  0  0
    3.1951    0.3770    0.0000 H   0  0  0  0  0  0  0  0  0  0  0  0
    2.3291   -1.1230    0.0000 H   0  0  0  0  0  0  0  0  0  0  0  0
    5.1350   -1.1230    0.0000 H   0  0  0  0  0  0  0  0  0  0  0  0
    5.1350   -2.7430    0.0000 H   0  0  0  0  0  0  0  0  0  0  0  0
  1 16  1  0  0  0  0
  2 18  1  0  0  0  0
  3 12  2  0  0  0  0
  4  9  1  0  0  0  0
  4 11  1  0  0  0  0
  4 12  1  0  0  0  0
  5 12  1  0  0  0  0
  5 13  1  0  0  0  0
  5 31  1  0  0  0  0
  6  7  1  0  0  0  0
  6  8  1  0  0  0  0
  6  9  1  0  0  0  0
  6 19  1  0  0  0  0
  7  8  1  0  0  0  0
  7 22  1  0  0  0  0
  7 23  1  0  0  0  0
  8 20  1  0  0  0  0
  8 21  1  0  0  0  0
  9 10  1  0  0  0  0
  9 24  1  0  0  0  0
 10 25  1  0  0  0  0
 10 26  1  0  0  0  0
 10 27  1  0  0  0  0
 11 28  1  0  0  0  0
 11 29  1  0  0  0  0
 11 30  1  0  0  0  0
 13 14  2  0  0  0  0
 13 15  1  0  0  0  0
 14 16  1  0  0  0  0
 14 32  1  0  0  0  0
 15 17  2  0  0  0  0
 15 33  1  0  0  0  0
 16 18  2  0  0  0  0
 17 18  1  0  0  0  0
 17 34  1  0  0  0  0
M  END
> <PUBCHEM_COMPOUND_CID>
24657981

> <PUBCHEM_COMPOUND_CANONICALIZED>
1

> <PUBCHEM_CACTVS_COMPLEXITY>
309

> <PUBCHEM_CACTVS_HBOND_ACCEPTOR>
1

> <PUBCHEM_CACTVS_HBOND_DONOR>
1

> <PUBCHEM_CACTVS_ROTATABLE_BOND>
3

> <PUBCHEM_CACTVS_SUBSKEYS>
AAADceBzIAAGAAAAAAAAAAAAGAAAAAAAAAAwAAAAAAAAAAABAAAAHgIQAAAADSrBECQzwIPAAACIACRCUACCAAAhBwAIikAIZoiIICLBk5GEIAholgJIyCcQAAAIAABAAAIAAAQAAIAABAAACAAAAAAAAA==

> <PUBCHEM_IUPAC_OPENEYE_NAME>
1-(1-cyclopropylethyl)-3-(3,4-dichlorophenyl)-1-methyl-urea

> <PUBCHEM_IUPAC_CAS_NAME>
1-(1-cyclopropylethyl)-3-(3,4-dichlorophenyl)-1-methylurea

> <PUBCHEM_IUPAC_NAME>
1-(1-cyclopropylethyl)-3-(3,4-dichlorophenyl)-1-methylurea

> <PUBCHEM_IUPAC_SYSTEMATIC_NAME>
1-(1-cyclopropylethyl)-3-(3,4-dichlorophenyl)-1-methyl-urea

> <PUBCHEM_IUPAC_TRADITIONAL_NAME>
1-(1-cyclopropylethyl)-3-(3,4-dichlorophenyl)-1-methyl-urea

> <PUBCHEM_IUPAC_INCHI>
InChI=1S/C13H16Cl2N2O/c1-8(9-3-4-9)17(2)13(18)16-10-5-6-11(14)12(15)7-10/h5-9H,3-4H2,1-2H3,(H,16,18)

> <PUBCHEM_IUPAC_INCHIKEY>
RGPGJNVRJUIICW-UHFFFAOYSA-N

> <PUBCHEM_XLOGP3>
3.9

> <PUBCHEM_EXACT_MASS>
286.063969

> <PUBCHEM_MOLECULAR_FORMULA>
C13H16Cl2N2O

> <PUBCHEM_MOLECULAR_WEIGHT>
287.18494

> <PUBCHEM_OPENEYE_CAN_SMILES>
CC(C1CC1)N(C)C(=O)NC2=CC(=C(C=C2)Cl)Cl

> <PUBCHEM_OPENEYE_ISO_SMILES>
CC(C1CC1)N(C)C(=O)NC2=CC(=C(C=C2)Cl)Cl

> <PUBCHEM_CACTVS_TPSA>
32.3

> <PUBCHEM_MONOISOTOPIC_WEIGHT>
286.063969

> <PUBCHEM_TOTAL_CHARGE>
0

> <PUBCHEM_HEAVY_ATOM_COUNT>
18

> <PUBCHEM_ATOM_DEF_STEREO_COUNT>
0

> <PUBCHEM_ATOM_UDEF_STEREO_COUNT>
1

> <PUBCHEM_BOND_DEF_STEREO_COUNT>
0

> <PUBCHEM_BOND_UDEF_STEREO_COUNT>
0

> <PUBCHEM_ISOTOPIC_ATOM_COUNT>
0

> <PUBCHEM_COMPONENT_COUNT>
1

> <PUBCHEM_CACTVS_TAUTO_COUNT>
2

> <PUBCHEM_COORDINATE_TYPE>
1
5
255

> <PUBCHEM_BONDANNOTATIONS>
13  14  8
13  15  8
14  16  8
15  17  8
16  18  8
17  18  8
9  10  3

$$$$
24657985
  -OEChem-11301217362D

 37 38  0     1  0  0  0  0  0999 V2000
    2.0000   -2.9330    0.0000 Cl  0  0  0  0  0  0  0  0  0  0  0  0
    5.4641    0.0670    0.0000 O   0  0  0  0  0  0  0  0  0  0  0  0
    4.5981    1.5670    0.0000 N   0  0  0  0  0  0  0  0  0  0  0  0
    3.7320    0.0670    0.0000 N   0  0  0  0  0  0  0  0  0  0  0  0
    5.4641    3.0670    0.0000 C   0  0  0  0  0  0  0  0  0  0  0  0
    5.9641    3.9330    0.0000 C   0  0  0  0  0  0  0  0  0  0  0  0
    4.9641    3.9330    0.0000 C   0  0  0  0  0  0  0  0  0  0  0  0
    5.4641    2.0670    0.0000 C   0  0  3  0  0  0  0  0  0  0  0  0
    6.3301    1.5670    0.0000 C   0  0  0  0  0  0  0  0  0  0  0  0
    3.7320    2.0670    0.0000 C   0  0  0  0  0  0  0  0  0  0  0  0
    4.5981    0.5670    0.0000 C   0  0  0  0  0  0  0  0  0  0  0  0
    3.7320   -0.9330    0.0000 C   0  0  0  0  0  0  0  0  0  0  0  0
    2.8660   -1.4330    0.0000 C   0  0  0  0  0  0  0  0  0  0  0  0
    4.5981   -1.4330    0.0000 C   0  0  0  0  0  0  0  0  0  0  0  0
    3.7320   -2.9330    0.0000 C   0  0  0  0  0  0  0  0  0  0  0  0
    2.8660   -2.4330    0.0000 C   0  0  0  0  0  0  0  0  0  0  0  0
    4.5981   -2.4330    0.0000 C   0  0  0  0  0  0  0  0  0  0  0  0
    3.7320   -3.9330    0.0000 C   0  0  0  0  0  0  0  0  0  0  0  0
    6.0630    2.9065    0.0000 H   0  0  0  0  0  0  0  0  0  0  0  0
    6.5467    3.7210    0.0000 H   0  0  0  0  0  0  0  0  0  0  0  0
    6.0718    4.5436    0.0000 H   0  0  0  0  0  0  0  0  0  0  0  0
    4.8564    4.5436    0.0000 H   0  0  0  0  0  0  0  0  0  0  0  0
    4.3815    3.7210    0.0000 H   0  0  0  0  0  0  0  0  0  0  0  0
    5.4641    1.4470    0.0000 H   0  0  0  0  0  0  0  0  0  0  0  0
    6.0201    1.0300    0.0000 H   0  0  0  0  0  0  0  0  0  0  0  0
    6.8671    1.2570    0.0000 H   0  0  0  0  0  0  0  0  0  0  0  0
    6.6401    2.1039    0.0000 H   0  0  0  0  0  0  0  0  0  0  0  0
    4.0420    2.6039    0.0000 H   0  0  0  0  0  0  0  0  0  0  0  0
    3.1951    2.3770    0.0000 H   0  0  0  0  0  0  0  0  0  0  0  0
    3.4220    1.5300    0.0000 H   0  0  0  0  0  0  0  0  0  0  0  0
    3.1951    0.3770    0.0000 H   0  0  0  0  0  0  0  0  0  0  0  0
    2.3291   -1.1230    0.0000 H   0  0  0  0  0  0  0  0  0  0  0  0
    5.1350   -1.1230    0.0000 H   0  0  0  0  0  0  0  0  0  0  0  0
    5.1350   -2.7430    0.0000 H   0  0  0  0  0  0  0  0  0  0  0  0
    3.1120   -3.9330    0.0000 H   0  0  0  0  0  0  0  0  0  0  0  0
    3.7320   -4.5530    0.0000 H   0  0  0  0  0  0  0  0  0  0  0  0
    4.3520   -3.9330    0.0000 H   0  0  0  0  0  0  0  0  0  0  0  0
  1 16  1  0  0  0  0
  2 11  2  0  0  0  0
  3  8  1  0  0  0  0
  3 10  1  0  0  0  0
  3 11  1  0  0  0  0
  4 11  1  0  0  0  0
  4 12  1  0  0  0  0
  4 31  1  0  0  0  0
  5  6  1  0  0  0  0
  5  7  1  0  0  0  0
  5  8  1  0  0  0  0
  5 19  1  0  0  0  0
  6  7  1  0  0  0  0
  6 20  1  0  0  0  0
  6 21  1  0  0  0  0
  7 22  1  0  0  0  0
  7 23  1  0  0  0  0
  8  9  1  0  0  0  0
  8 24  1  0  0  0  0
  9 25  1  0  0  0  0
  9 26  1  0  0  0  0
  9 27  1  0  0  0  0
 10 28  1  0  0  0  0
 10 29  1  0  0  0  0
 10 30  1  0  0  0  0
 12 13  2  0  0  0  0
 12 14  1  0  0  0  0
 13 16  1  0  0  0  0
 13 32  1  0  0  0  0
 14 17  2  0  0  0  0
 14 33  1  0  0  0  0
 15 16  2  0  0  0  0
 15 17  1  0  0  0  0
 15 18  1  0  0  0  0
 17 34  1  0  0  0  0
 18 35  1  0  0  0  0
 18 36  1  0  0  0  0
 18 37  1  0  0  0  0
M  END
> <PUBCHEM_COMPOUND_CID>
24657985

> <PUBCHEM_COMPOUND_CANONICALIZED>
1

> <PUBCHEM_CACTVS_COMPLEXITY>
306

> <PUBCHEM_CACTVS_HBOND_ACCEPTOR>
1

> <PUBCHEM_CACTVS_HBOND_DONOR>
1

> <PUBCHEM_CACTVS_ROTATABLE_BOND>
3

> <PUBCHEM_CACTVS_SUBSKEYS>
AAADceBzIAAEAAAAAAAAAAAAGAAAAAAAAAAwAAAAAAAAAAABAAAAHgIQAAAADSrBGCQzwIPAAACIAiRCUACCAAAhBwAIiAAIZoiIICLBk5GEIAholgJIyCcQgAAOCAAAAAIBAAAQAAAABAIAAAAAAAAAAA==

> <PUBCHEM_IUPAC_OPENEYE_NAME>
3-(3-chloro-4-methyl-phenyl)-1-(1-cyclopropylethyl)-1-methyl-urea

> <PUBCHEM_IUPAC_CAS_NAME>
3-(3-chloro-4-methylphenyl)-1-(1-cyclopropylethyl)-1-methylurea

> <PUBCHEM_IUPAC_NAME>
3-(3-chloro-4-methylphenyl)-1-(1-cyclopropylethyl)-1-methylurea

> <PUBCHEM_IUPAC_SYSTEMATIC_NAME>
3-(3-chloranyl-4-methyl-phenyl)-1-(1-cyclopropylethyl)-1-methyl-urea

> <PUBCHEM_IUPAC_TRADITIONAL_NAME>
3-(3-chloro-4-methyl-phenyl)-1-(1-cyclopropylethyl)-1-methyl-urea

> <PUBCHEM_IUPAC_INCHI>
InChI=1S/C14H19ClN2O/c1-9-4-7-12(8-13(9)15)16-14(18)17(3)10(2)11-5-6-11/h4,7-8,10-11H,5-6H2,1-3H3,(H,16,18)

> <PUBCHEM_IUPAC_INCHIKEY>
YUKSPBLZVXLZLV-UHFFFAOYSA-N

> <PUBCHEM_XLOGP3>
3.6

> <PUBCHEM_EXACT_MASS>
266.118591

> <PUBCHEM_MOLECULAR_FORMULA>
C14H19ClN2O

> <PUBCHEM_MOLECULAR_WEIGHT>
266.76646

> <PUBCHEM_OPENEYE_CAN_SMILES>
CC1=C(C=C(C=C1)NC(=O)N(C)C(C)C2CC2)Cl

> <PUBCHEM_OPENEYE_ISO_SMILES>
CC1=C(C=C(C=C1)NC(=O)N(C)C(C)C2CC2)Cl

> <PUBCHEM_CACTVS_TPSA>
32.3

> <PUBCHEM_MONOISOTOPIC_WEIGHT>
266.118591

> <PUBCHEM_TOTAL_CHARGE>
0

> <PUBCHEM_HEAVY_ATOM_COUNT>
18

> <PUBCHEM_ATOM_DEF_STEREO_COUNT>
0

> <PUBCHEM_ATOM_UDEF_STEREO_COUNT>
1

> <PUBCHEM_BOND_DEF_STEREO_COUNT>
0

> <PUBCHEM_BOND_UDEF_STEREO_COUNT>
0

> <PUBCHEM_ISOTOPIC_ATOM_COUNT>
0

> <PUBCHEM_COMPONENT_COUNT>
1

> <PUBCHEM_CACTVS_TAUTO_COUNT>
2

> <PUBCHEM_COORDINATE_TYPE>
1
5
255

> <PUBCHEM_BONDANNOTATIONS>
12  13  8
12  14  8
13  16  8
14  17  8
15  16  8
15  17  8
8  9  3

$$$$
24662204
  -OEChem-11301217362D

 35 36  0     0  0  0  0  0  0999 V2000
    4.7320    1.0000    0.0000 S   0  0  0  0  0  0  0  0  0  0  0  0
    8.1962    1.0000    0.0000 F   0  0  0  0  0  0  0  0  0  0  0  0
    7.3301   -0.5000    0.0000 F   0  0  0  0  0  0  0  0  0  0  0  0
    3.0000   -4.0000    0.0000 F   0  0  0  0  0  0  0  0  0  0  0  0
    2.0000   -3.0000    0.0000 F   0  0  0  0  0  0  0  0  0  0  0  0
    4.0000   -3.0000    0.0000 F   0  0  0  0  0  0  0  0  0  0  0  0
    5.7320    1.0000    0.0000 O   0  0  0  0  0  0  0  0  0  0  0  0
    3.7320    1.0000    0.0000 O   0  0  0  0  0  0  0  0  0  0  0  0
    6.4641    1.0000    0.0000 O   0  0  0  0  0  0  0  0  0  0  0  0
    3.0000   -2.0000    0.0000 O   0  0  0  0  0  0  0  0  0  0  0  0
    4.7320    2.0000    0.0000 N   0  0  0  0  0  0  0  0  0  0  0  0
    4.7320    0.0000    0.0000 C   0  0  0  0  0  0  0  0  0  0  0  0
    5.5981    2.5000    0.0000 C   0  0  0  0  0  0  0  0  0  0  0  0
    3.8660   -0.5000    0.0000 C   0  0  0  0  0  0  0  0  0  0  0  0
    5.5981   -0.5000    0.0000 C   0  0  0  0  0  0  0  0  0  0  0  0
    6.4641    2.0000    0.0000 C   0  0  0  0  0  0  0  0  0  0  0  0
    3.8660   -1.5000    0.0000 C   0  0  0  0  0  0  0  0  0  0  0  0
    5.5981    3.5000    0.0000 C   0  0  0  0  0  0  0  0  0  0  0  0
    5.5981   -1.5000    0.0000 C   0  0  0  0  0  0  0  0  0  0  0  0
    4.7320   -2.0000    0.0000 C   0  0  0  0  0  0  0  0  0  0  0  0
    7.3301    2.5000    0.0000 C   0  0  0  0  0  0  0  0  0  0  0  0
    6.4641    4.0000    0.0000 C   0  0  0  0  0  0  0  0  0  0  0  0
    7.3301    3.5000    0.0000 C   0  0  0  0  0  0  0  0  0  0  0  0
    7.3301    0.5000    0.0000 C   0  0  0  0  0  0  0  0  0  0  0  0
    3.0000   -3.0000    0.0000 C   0  0  0  0  0  0  0  0  0  0  0  0
    4.1951    2.3100    0.0000 H   0  0  0  0  0  0  0  0  0  0  0  0
    3.3291   -0.1900    0.0000 H   0  0  0  0  0  0  0  0  0  0  0  0
    6.1350   -0.1900    0.0000 H   0  0  0  0  0  0  0  0  0  0  0  0
    5.0611    3.8100    0.0000 H   0  0  0  0  0  0  0  0  0  0  0  0
    6.1350   -1.8100    0.0000 H   0  0  0  0  0  0  0  0  0  0  0  0
    4.7320   -2.6200    0.0000 H   0  0  0  0  0  0  0  0  0  0  0  0
    7.8671    2.1900    0.0000 H   0  0  0  0  0  0  0  0  0  0  0  0
    6.4641    4.6200    0.0000 H   0  0  0  0  0  0  0  0  0  0  0  0
    7.8671    3.8100    0.0000 H   0  0  0  0  0  0  0  0  0  0  0  0
    7.3301    1.1200    0.0000 H   0  0  0  0  0  0  0  0  0  0  0  0
  1  7  2  0  0  0  0
  1  8  2  0  0  0  0
  1 11  1  0  0  0  0
  1 12  1  0  0  0  0
  2 24  1  0  0  0  0
  3 24  1  0  0  0  0
  4 25  1  0  0  0  0
  5 25  1  0  0  0  0
  6 25  1  0  0  0  0
  9 16  1  0  0  0  0
  9 24  1  0  0  0  0
 10 17  1  0  0  0  0
 10 25  1  0  0  0  0
 11 13  1  0  0  0  0
 11 26  1  0  0  0  0
 12 14  1  0  0  0  0
 12 15  2  0  0  0  0
 13 16  1  0  0  0  0
 13 18  2  0  0  0  0
 14 17  2  0  0  0  0
 14 27  1  0  0  0  0
 15 19  1  0  0  0  0
 15 28  1  0  0  0  0
 16 21  2  0  0  0  0
 17 20  1  0  0  0  0
 18 22  1  0  0  0  0
 18 29  1  0  0  0  0
 19 20  2  0  0  0  0
 19 30  1  0  0  0  0
 20 31  1  0  0  0  0
 21 23  1  0  0  0  0
 21 32  1  0  0  0  0
 22 23  2  0  0  0  0
 22 33  1  0  0  0  0
 23 34  1  0  0  0  0
 24 35  1  0  0  0  0
M  END
> <PUBCHEM_COMPOUND_CID>
24662204

> <PUBCHEM_COMPOUND_CANONICALIZED>
1

> <PUBCHEM_CACTVS_COMPLEXITY>
522

> <PUBCHEM_CACTVS_HBOND_ACCEPTOR>
10

> <PUBCHEM_CACTVS_HBOND_DONOR>
1

> <PUBCHEM_CACTVS_ROTATABLE_BOND>
6

> <PUBCHEM_CACTVS_SUBSKEYS>
AAADccByOcBAAAAAAAAAAAAAAAAAAAAAAAAwYAAAAAAAAAABQAAAHwQQQAAACAyB0BIwx4BABAKAACRCQHDCCBAgIgAIiBgHbIgOJiKEsZuBMCBk0BEI6AeQQAAAAAAABAAAEAAAAAAIAAAgAAAAAAAAAA==

> <PUBCHEM_IUPAC_OPENEYE_NAME>
N-[2-(difluoromethoxy)phenyl]-3-(trifluoromethoxy)benzenesulfonamide

> <PUBCHEM_IUPAC_CAS_NAME>
N-[2-(difluoromethoxy)phenyl]-3-(trifluoromethoxy)benzenesulfonamide

> <PUBCHEM_IUPAC_NAME>
N-[2-(difluoromethoxy)phenyl]-3-(trifluoromethoxy)benzenesulfonamide

> <PUBCHEM_IUPAC_SYSTEMATIC_NAME>
N-[2-[bis(fluoranyl)methoxy]phenyl]-3-(trifluoromethyloxy)benzenesulfonamide

> <PUBCHEM_IUPAC_TRADITIONAL_NAME>
N-[2-(difluoromethoxy)phenyl]-3-(trifluoromethoxy)benzenesulfonamide

> <PUBCHEM_IUPAC_INCHI>
InChI=1S/C14H10F5NO4S/c15-13(16)23-12-7-2-1-6-11(12)20-25(21,22)10-5-3-4-9(8-10)24-14(17,18)19/h1-8,13,20H

> <PUBCHEM_IUPAC_INCHIKEY>
RGFKZSCGPACSQL-UHFFFAOYSA-N

> <PUBCHEM_XLOGP3>
4.4

> <PUBCHEM_EXACT_MASS>
383.02507

> <PUBCHEM_MOLECULAR_FORMULA>
C14H10F5NO4S

> <PUBCHEM_MOLECULAR_WEIGHT>
383.290516

> <PUBCHEM_OPENEYE_CAN_SMILES>
C1=CC=C(C(=C1)NS(=O)(=O)C2=CC=CC(=C2)OC(F)(F)F)OC(F)F

> <PUBCHEM_OPENEYE_ISO_SMILES>
C1=CC=C(C(=C1)NS(=O)(=O)C2=CC=CC(=C2)OC(F)(F)F)OC(F)F

> <PUBCHEM_CACTVS_TPSA>
73

> <PUBCHEM_MONOISOTOPIC_WEIGHT>
383.02507

> <PUBCHEM_TOTAL_CHARGE>
0

> <PUBCHEM_HEAVY_ATOM_COUNT>
25

> <PUBCHEM_ATOM_DEF_STEREO_COUNT>
0

> <PUBCHEM_ATOM_UDEF_STEREO_COUNT>
0

> <PUBCHEM_BOND_DEF_STEREO_COUNT>
0

> <PUBCHEM_BOND_UDEF_STEREO_COUNT>
0

> <PUBCHEM_ISOTOPIC_ATOM_COUNT>
0

> <PUBCHEM_COMPONENT_COUNT>
1

> <PUBCHEM_CACTVS_TAUTO_COUNT>
1

> <PUBCHEM_COORDINATE_TYPE>
1
5
255

> <PUBCHEM_BONDANNOTATIONS>
12  14  8
12  15  8
13  16  8
13  18  8
14  17  8
15  19  8
16  21  8
17  20  8
18  22  8
19  20  8
21  23  8
22  23  8

$$$$
24664821
  -OEChem-11301217362D

 44 46  0     0  0  0  0  0  0999 V2000
    2.0000   -4.2500    0.0000 Cl  0  0  0  0  0  0  0  0  0  0  0  0
    5.4641   -1.2500    0.0000 O   0  0  0  0  0  0  0  0  0  0  0  0
    4.5981    0.2500    0.0000 N   0  0  0  0  0  0  0  0  0  0  0  0
    3.7320   -1.2500    0.0000 N   0  0  0  0  0  0  0  0  0  0  0  0
    4.5981    2.2500    0.0000 C   0  0  0  0  0  0  0  0  0  0  0  0
    3.7320    1.7500    0.0000 C   0  0  0  0  0  0  0  0  0  0  0  0
    5.4641    1.7500    0.0000 C   0  0  0  0  0  0  0  0  0  0  0  0
    3.7320    0.7500    0.0000 C   0  0  0  0  0  0  0  0  0  0  0  0
    5.4641    0.7500    0.0000 C   0  0  0  0  0  0  0  0  0  0  0  0
    4.5981    3.2500    0.0000 C   0  0  0  0  0  0  0  0  0  0  0  0
    4.5981   -0.7500    0.0000 C   0  0  0  0  0  0  0  0  0  0  0  0
    5.4641    3.7500    0.0000 C   0  0  0  0  0  0  0  0  0  0  0  0
    3.7320    3.7500    0.0000 C   0  0  0  0  0  0  0  0  0  0  0  0
    5.4641    4.7500    0.0000 C   0  0  0  0  0  0  0  0  0  0  0  0
    3.7320    4.7500    0.0000 C   0  0  0  0  0  0  0  0  0  0  0  0
    4.5981    5.2500    0.0000 C   0  0  0  0  0  0  0  0  0  0  0  0
    3.7320   -2.2500    0.0000 C   0  0  0  0  0  0  0  0  0  0  0  0
    2.8660   -2.7500    0.0000 C   0  0  0  0  0  0  0  0  0  0  0  0
    4.5981   -2.7500    0.0000 C   0  0  0  0  0  0  0  0  0  0  0  0
    3.7320   -4.2500    0.0000 C   0  0  0  0  0  0  0  0  0  0  0  0
    2.8660   -3.7500    0.0000 C   0  0  0  0  0  0  0  0  0  0  0  0
    4.5981   -3.7500    0.0000 C   0  0  0  0  0  0  0  0  0  0  0  0
    3.7320   -5.2500    0.0000 C   0  0  0  0  0  0  0  0  0  0  0  0
    5.1350    2.5600    0.0000 H   0  0  0  0  0  0  0  0  0  0  0  0
    6.0747    1.6423    0.0000 H   0  0  0  0  0  0  0  0  0  0  0  0
    5.6762    2.3326    0.0000 H   0  0  0  0  0  0  0  0  0  0  0  0
    3.5200    2.3326    0.0000 H   0  0  0  0  0  0  0  0  0  0  0  0
    3.1215    1.6423    0.0000 H   0  0  0  0  0  0  0  0  0  0  0  0
    5.6762    0.1674    0.0000 H   0  0  0  0  0  0  0  0  0  0  0  0
    6.0747    0.8577    0.0000 H   0  0  0  0  0  0  0  0  0  0  0  0
    3.1215    0.8577    0.0000 H   0  0  0  0  0  0  0  0  0  0  0  0
    3.5200    0.1674    0.0000 H   0  0  0  0  0  0  0  0  0  0  0  0
    6.0010    3.4400    0.0000 H   0  0  0  0  0  0  0  0  0  0  0  0
    3.1951    3.4400    0.0000 H   0  0  0  0  0  0  0  0  0  0  0  0
    3.1951   -0.9400    0.0000 H   0  0  0  0  0  0  0  0  0  0  0  0
    6.0010    5.0600    0.0000 H   0  0  0  0  0  0  0  0  0  0  0  0
    3.1951    5.0600    0.0000 H   0  0  0  0  0  0  0  0  0  0  0  0
    4.5981    5.8700    0.0000 H   0  0  0  0  0  0  0  0  0  0  0  0
    2.3291   -2.4400    0.0000 H   0  0  0  0  0  0  0  0  0  0  0  0
    5.1350   -2.4400    0.0000 H   0  0  0  0  0  0  0  0  0  0  0  0
    5.1350   -4.0600    0.0000 H   0  0  0  0  0  0  0  0  0  0  0  0
    3.1120   -5.2500    0.0000 H   0  0  0  0  0  0  0  0  0  0  0  0
    3.7320   -5.8700    0.0000 H   0  0  0  0  0  0  0  0  0  0  0  0
    4.3520   -5.2500    0.0000 H   0  0  0  0  0  0  0  0  0  0  0  0
  1 21  1  0  0  0  0
  2 11  2  0  0  0  0
  3  8  1  0  0  0  0
  3  9  1  0  0  0  0
  3 11  1  0  0  0  0
  4 11  1  0  0  0  0
  4 17  1  0  0  0  0
  4 35  1  0  0  0  0
  5  6  1  0  0  0  0
  5  7  1  0  0  0  0
  5 10  1  0  0  0  0
  5 24  1  0  0  0  0
  6  8  1  0  0  0  0
  6 27  1  0  0  0  0
  6 28  1  0  0  0  0
  7  9  1  0  0  0  0
  7 25  1  0  0  0  0
  7 26  1  0  0  0  0
  8 31  1  0  0  0  0
  8 32  1  0  0  0  0
  9 29  1  0  0  0  0
  9 30  1  0  0  0  0
 10 12  2  0  0  0  0
 10 13  1  0  0  0  0
 12 14  1  0  0  0  0
 12 33  1  0  0  0  0
 13 15  2  0  0  0  0
 13 34  1  0  0  0  0
 14 16  2  0  0  0  0
 14 36  1  0  0  0  0
 15 16  1  0  0  0  0
 15 37  1  0  0  0  0
 16 38  1  0  0  0  0
 17 18  2  0  0  0  0
 17 19  1  0  0  0  0
 18 21  1  0  0  0  0
 18 39  1  0  0  0  0
 19 22  2  0  0  0  0
 19 40  1  0  0  0  0
 20 21  2  0  0  0  0
 20 22  1  0  0  0  0
 20 23  1  0  0  0  0
 22 41  1  0  0  0  0
 23 42  1  0  0  0  0
 23 43  1  0  0  0  0
 23 44  1  0  0  0  0
M  END
> <PUBCHEM_COMPOUND_CID>
24664821

> <PUBCHEM_COMPOUND_CANONICALIZED>
1

> <PUBCHEM_CACTVS_COMPLEXITY>
389

> <PUBCHEM_CACTVS_HBOND_ACCEPTOR>
1

> <PUBCHEM_CACTVS_HBOND_DONOR>
1

> <PUBCHEM_CACTVS_ROTATABLE_BOND>
2

> <PUBCHEM_CACTVS_SUBSKEYS>
AAADceB7IAAEAAAAAAAAAAAAAAAAAAAAAAA8YIAAAAAAAAABQAAAHgIQAAAADQrBGCQzwIPAAACIAiRCUACCAAAhBwAIiAAIZoiIICLBk5GEIAholgLIyCcQgMAOiAAAAAIBAAAQAAAABAIAAAAAAAAAAA==

> <PUBCHEM_IUPAC_OPENEYE_NAME>
N-(3-chloro-4-methyl-phenyl)-4-phenyl-piperidine-1-carboxamide

> <PUBCHEM_IUPAC_CAS_NAME>
N-(3-chloro-4-methylphenyl)-4-phenyl-1-piperidinecarboxamide

> <PUBCHEM_IUPAC_NAME>
N-(3-chloro-4-methylphenyl)-4-phenylpiperidine-1-carboxamide

> <PUBCHEM_IUPAC_SYSTEMATIC_NAME>
N-(3-chloranyl-4-methyl-phenyl)-4-phenyl-piperidine-1-carboxamide

> <PUBCHEM_IUPAC_TRADITIONAL_NAME>
N-(3-chloro-4-methyl-phenyl)-4-phenyl-piperidine-1-carboxamide

> <PUBCHEM_IUPAC_INCHI>
InChI=1S/C19H21ClN2O/c1-14-7-8-17(13-18(14)20)21-19(23)22-11-9-16(10-12-22)15-5-3-2-4-6-15/h2-8,13,16H,9-12H2,1H3,(H,21,23)

> <PUBCHEM_IUPAC_INCHIKEY>
QCVBCAHWLRJGRQ-UHFFFAOYSA-N

> <PUBCHEM_XLOGP3>
4.9

> <PUBCHEM_EXACT_MASS>
328.134241

> <PUBCHEM_MOLECULAR_FORMULA>
C19H21ClN2O

> <PUBCHEM_MOLECULAR_WEIGHT>
328.83584

> <PUBCHEM_OPENEYE_CAN_SMILES>
CC1=C(C=C(C=C1)NC(=O)N2CCC(CC2)C3=CC=CC=C3)Cl

> <PUBCHEM_OPENEYE_ISO_SMILES>
CC1=C(C=C(C=C1)NC(=O)N2CCC(CC2)C3=CC=CC=C3)Cl

> <PUBCHEM_CACTVS_TPSA>
32.3

> <PUBCHEM_MONOISOTOPIC_WEIGHT>
328.134241

> <PUBCHEM_TOTAL_CHARGE>
0

> <PUBCHEM_HEAVY_ATOM_COUNT>
23

> <PUBCHEM_ATOM_DEF_STEREO_COUNT>
0

> <PUBCHEM_ATOM_UDEF_STEREO_COUNT>
0

> <PUBCHEM_BOND_DEF_STEREO_COUNT>
0

> <PUBCHEM_BOND_UDEF_STEREO_COUNT>
0

> <PUBCHEM_ISOTOPIC_ATOM_COUNT>
0

> <PUBCHEM_COMPONENT_COUNT>
1

> <PUBCHEM_CACTVS_TAUTO_COUNT>
2

> <PUBCHEM_COORDINATE_TYPE>
1
5
255

> <PUBCHEM_BONDANNOTATIONS>
10  12  8
10  13  8
12  14  8
13  15  8
14  16  8
15  16  8
17  18  8
17  19  8
18  21  8
19  22  8
20  21  8
20  22  8

$$$$
