32613444
  -OEChem-03221309342D

 44 45  0     0  0  0  0  0  0999 V2000
    5.6103    1.1622    0.0000 O   0  0  0  0  0  0  0  0  0  0  0  0
    7.2566    0.6241    0.0000 N   0  0  0  0  0  0  0  0  0  0  0  0
    4.6783   -3.2988    0.0000 N   0  0  0  0  0  0  0  0  0  0  0  0
    8.8564    2.7314    0.0000 C   0  0  0  0  0  0  0  0  0  0  0  0
    9.8349    2.9376    0.0000 C   0  0  0  0  0  0  0  0  0  0  0  0
    8.5458    1.7809    0.0000 C   0  0  0  0  0  0  0  0  0  0  0  0
    7.5673    1.5747    0.0000 C   0  0  0  0  0  0  0  0  0  0  0  0
    4.9889   -0.7388    0.0000 C   0  0  0  0  0  0  0  0  0  0  0  0
    4.6783   -1.6893    0.0000 C   0  0  0  0  0  0  0  0  0  0  0  0
   10.1456    3.8881    0.0000 C   0  0  0  0  0  0  0  0  0  0  0  0
   10.5028    2.1933    0.0000 C   0  0  0  0  0  0  0  0  0  0  0  0
    5.9674   -0.5326    0.0000 C   0  0  0  0  0  0  0  0  0  0  0  0
    3.7320   -1.9941    0.0000 C   0  0  0  0  0  0  0  0  0  0  0  0
    3.7320   -2.9941    0.0000 C   0  0  0  0  0  0  0  0  0  0  0  0
    6.2781    0.4179    0.0000 C   0  0  0  0  0  0  0  0  0  0  0  0
    5.2619   -2.4941    0.0000 C   0  0  0  0  0  0  0  0  0  0  0  0
    2.8660   -1.4941    0.0000 C   0  0  0  0  0  0  0  0  0  0  0  0
    2.8660   -3.4941    0.0000 C   0  0  0  0  0  0  0  0  0  0  0  0
    2.0000   -1.9941    0.0000 C   0  0  0  0  0  0  0  0  0  0  0  0
    2.0000   -2.9941    0.0000 C   0  0  0  0  0  0  0  0  0  0  0  0
    8.8359    3.3510    0.0000 H   0  0  0  0  0  0  0  0  0  0  0  0
    8.2426    2.8187    0.0000 H   0  0  0  0  0  0  0  0  0  0  0  0
    9.6423    2.3483    0.0000 H   0  0  0  0  0  0  0  0  0  0  0  0
    8.5663    1.1612    0.0000 H   0  0  0  0  0  0  0  0  0  0  0  0
    9.1596    1.6935    0.0000 H   0  0  0  0  0  0  0  0  0  0  0  0
    7.5467    2.1943    0.0000 H   0  0  0  0  0  0  0  0  0  0  0  0
    6.9534    1.6620    0.0000 H   0  0  0  0  0  0  0  0  0  0  0  0
    4.9684   -0.1192    0.0000 H   0  0  0  0  0  0  0  0  0  0  0  0
    4.3751   -0.6515    0.0000 H   0  0  0  0  0  0  0  0  0  0  0  0
    5.9880   -1.1523    0.0000 H   0  0  0  0  0  0  0  0  0  0  0  0
    6.5812   -0.6200    0.0000 H   0  0  0  0  0  0  0  0  0  0  0  0
   10.0413    1.7792    0.0000 H   0  0  0  0  0  0  0  0  0  0  0  0
   10.7349    3.6955    0.0000 H   0  0  0  0  0  0  0  0  0  0  0  0
   10.3382    4.4774    0.0000 H   0  0  0  0  0  0  0  0  0  0  0  0
    9.5563    4.0807    0.0000 H   0  0  0  0  0  0  0  0  0  0  0  0
   10.9169    1.7318    0.0000 H   0  0  0  0  0  0  0  0  0  0  0  0
   10.9643    2.6074    0.0000 H   0  0  0  0  0  0  0  0  0  0  0  0
    7.6707    0.1627    0.0000 H   0  0  0  0  0  0  0  0  0  0  0  0
    5.8819   -2.4941    0.0000 H   0  0  0  0  0  0  0  0  0  0  0  0
    4.8709   -3.8881    0.0000 H   0  0  0  0  0  0  0  0  0  0  0  0
    2.8660   -0.8741    0.0000 H   0  0  0  0  0  0  0  0  0  0  0  0
    2.8660   -4.1141    0.0000 H   0  0  0  0  0  0  0  0  0  0  0  0
    1.4631   -1.6841    0.0000 H   0  0  0  0  0  0  0  0  0  0  0  0
    1.4631   -3.3041    0.0000 H   0  0  0  0  0  0  0  0  0  0  0  0
  1 15  2  0  0  0  0
  2  7  1  0  0  0  0
  2 15  1  0  0  0  0
  2 38  1  0  0  0  0
  3 14  1  0  0  0  0
  3 16  1  0  0  0  0
  3 40  1  0  0  0  0
  4  5  1  0  0  0  0
  4  6  1  0  0  0  0
  4 21  1  0  0  0  0
  4 22  1  0  0  0  0
  5 10  1  0  0  0  0
  5 11  1  0  0  0  0
  5 23  1  0  0  0  0
  6  7  1  0  0  0  0
  6 24  1  0  0  0  0
  6 25  1  0  0  0  0
  7 26  1  0  0  0  0
  7 27  1  0  0  0  0
  8  9  1  0  0  0  0
  8 12  1  0  0  0  0
  8 28  1  0  0  0  0
  8 29  1  0  0  0  0
  9 13  1  0  0  0  0
  9 16  2  0  0  0  0
 10 33  1  0  0  0  0
 10 34  1  0  0  0  0
 10 35  1  0  0  0  0
 11 32  1  0  0  0  0
 11 36  1  0  0  0  0
 11 37  1  0  0  0  0
 12 15  1  0  0  0  0
 12 30  1  0  0  0  0
 12 31  1  0  0  0  0
 13 14  1  0  0  0  0
 13 17  2  0  0  0  0
 14 18  2  0  0  0  0
 16 39  1  0  0  0  0
 17 19  1  0  0  0  0
 17 41  1  0  0  0  0
 18 20  1  0  0  0  0
 18 42  1  0  0  0  0
 19 20  2  0  0  0  0
 19 43  1  0  0  0  0
 20 44  1  0  0  0  0
M  END
> <PUBCHEM_COMPOUND_CID>
32613444

> <PUBCHEM_COMPOUND_CANONICALIZED>
1

> <PUBCHEM_CACTVS_COMPLEXITY>
303

> <PUBCHEM_CACTVS_HBOND_ACCEPTOR>
1

> <PUBCHEM_CACTVS_HBOND_DONOR>
2

> <PUBCHEM_CACTVS_ROTATABLE_BOND>
7

> <PUBCHEM_CACTVS_SUBSKEYS>
AAADceB7IAAAAAAAAAAAAAAAAAAAAWAAAAAwAAAAAAAAAFgB8AAAHgAQAAAADQjBngQ+wPLJkACoAzV3VACCgCAxAiAI2aE4ZJgIIPLAkZGEIAhglgDIyAcYicCOgAAAAAACAAAAAAAAAAQAAAAAAAAAAA==

> <PUBCHEM_IUPAC_OPENEYE_NAME>
3-(1H-indol-3-yl)-N-isohexyl-propanamide

> <PUBCHEM_IUPAC_CAS_NAME>
3-(1H-indol-3-yl)-N-(4-methylpentyl)propanamide

> <PUBCHEM_IUPAC_NAME>
3-(1H-indol-3-yl)-N-(4-methylpentyl)propanamide

> <PUBCHEM_IUPAC_SYSTEMATIC_NAME>
3-(1H-indol-3-yl)-N-(4-methylpentyl)propanamide

> <PUBCHEM_IUPAC_TRADITIONAL_NAME>
3-(1H-indol-3-yl)-N-isohexyl-propionamide

> <PUBCHEM_IUPAC_INCHI>
InChI=1S/C17H24N2O/c1-13(2)6-5-11-18-17(20)10-9-14-12-19-16-8-4-3-7-15(14)16/h3-4,7-8,12-13,19H,5-6,9-11H2,1-2H3,(H,18,20)

> <PUBCHEM_IUPAC_INCHIKEY>
KMLJRBGRJDCAIG-UHFFFAOYSA-N

> <PUBCHEM_XLOGP3>
3.5

> <PUBCHEM_EXACT_MASS>
272.188863

> <PUBCHEM_MOLECULAR_FORMULA>
C17H24N2O

> <PUBCHEM_MOLECULAR_WEIGHT>
272.38526

> <PUBCHEM_OPENEYE_CAN_SMILES>
CC(C)CCCNC(=O)CCC1=CNC2=CC=CC=C21

> <PUBCHEM_OPENEYE_ISO_SMILES>
CC(C)CCCNC(=O)CCC1=CNC2=CC=CC=C21

> <PUBCHEM_CACTVS_TPSA>
44.9

> <PUBCHEM_MONOISOTOPIC_WEIGHT>
272.188863

> <PUBCHEM_TOTAL_CHARGE>
0

> <PUBCHEM_HEAVY_ATOM_COUNT>
20

> <PUBCHEM_ATOM_DEF_STEREO_COUNT>
0

> <PUBCHEM_ATOM_UDEF_STEREO_COUNT>
0

> <PUBCHEM_BOND_DEF_STEREO_COUNT>
0

> <PUBCHEM_BOND_UDEF_STEREO_COUNT>
0

> <PUBCHEM_ISOTOPIC_ATOM_COUNT>
0

> <PUBCHEM_COMPONENT_COUNT>
1

> <PUBCHEM_CACTVS_TAUTO_COUNT>
2

> <PUBCHEM_COORDINATE_TYPE>
1
5
255

> <PUBCHEM_BONDANNOTATIONS>
13  14  8
13  17  8
14  18  8
17  19  8
18  20  8
19  20  8
3  14  8
3  16  8
9  13  8
9  16  8

$$$$
32613515
  -OEChem-03221309342D

 47 48  0     0  0  0  0  0  0999 V2000
    7.9244   -0.4923    0.0000 O   0  0  0  0  0  0  0  0  0  0  0  0
    7.5673    1.2025    0.0000 N   0  0  0  0  0  0  0  0  0  0  0  0
    4.6783   -3.6710    0.0000 N   0  0  0  0  0  0  0  0  0  0  0  0
    9.8349    2.5655    0.0000 C   0  0  0  0  0  0  0  0  0  0  0  0
   10.1456    3.5160    0.0000 C   0  0  0  0  0  0  0  0  0  0  0  0
    8.8564    2.3592    0.0000 C   0  0  0  0  0  0  0  0  0  0  0  0
    4.9889   -1.1110    0.0000 C   0  0  0  0  0  0  0  0  0  0  0  0
    8.5458    1.4087    0.0000 C   0  0  0  0  0  0  0  0  0  0  0  0
    5.9674   -0.9048    0.0000 C   0  0  0  0  0  0  0  0  0  0  0  0
    4.6783   -2.0615    0.0000 C   0  0  0  0  0  0  0  0  0  0  0  0
    6.2781    0.0458    0.0000 C   0  0  0  0  0  0  0  0  0  0  0  0
    3.7320   -2.3662    0.0000 C   0  0  0  0  0  0  0  0  0  0  0  0
   11.1241    3.7222    0.0000 C   0  0  0  0  0  0  0  0  0  0  0  0
    9.4778    4.2603    0.0000 C   0  0  0  0  0  0  0  0  0  0  0  0
    3.7320   -3.3662    0.0000 C   0  0  0  0  0  0  0  0  0  0  0  0
    7.2566    0.2520    0.0000 C   0  0  0  0  0  0  0  0  0  0  0  0
    5.2619   -2.8662    0.0000 C   0  0  0  0  0  0  0  0  0  0  0  0
    2.8660   -1.8662    0.0000 C   0  0  0  0  0  0  0  0  0  0  0  0
    2.8660   -3.8662    0.0000 C   0  0  0  0  0  0  0  0  0  0  0  0
    2.0000   -2.3662    0.0000 C   0  0  0  0  0  0  0  0  0  0  0  0
    2.0000   -3.3662    0.0000 C   0  0  0  0  0  0  0  0  0  0  0  0
    9.8555    1.9458    0.0000 H   0  0  0  0  0  0  0  0  0  0  0  0
   10.4488    2.4781    0.0000 H   0  0  0  0  0  0  0  0  0  0  0  0
   10.3382    4.1053    0.0000 H   0  0  0  0  0  0  0  0  0  0  0  0
    8.8359    2.9789    0.0000 H   0  0  0  0  0  0  0  0  0  0  0  0
    8.2426    2.4466    0.0000 H   0  0  0  0  0  0  0  0  0  0  0  0
    4.9684   -0.4913    0.0000 H   0  0  0  0  0  0  0  0  0  0  0  0
    4.3751   -1.0236    0.0000 H   0  0  0  0  0  0  0  0  0  0  0  0
    8.5663    0.7891    0.0000 H   0  0  0  0  0  0  0  0  0  0  0  0
    9.1596    1.3214    0.0000 H   0  0  0  0  0  0  0  0  0  0  0  0
    5.9880   -1.5244    0.0000 H   0  0  0  0  0  0  0  0  0  0  0  0
    6.5812   -0.9921    0.0000 H   0  0  0  0  0  0  0  0  0  0  0  0
    6.2575    0.6654    0.0000 H   0  0  0  0  0  0  0  0  0  0  0  0
    5.6643    0.1331    0.0000 H   0  0  0  0  0  0  0  0  0  0  0  0
    9.9392    4.6743    0.0000 H   0  0  0  0  0  0  0  0  0  0  0  0
   11.2520    3.1155    0.0000 H   0  0  0  0  0  0  0  0  0  0  0  0
   11.7308    3.8501    0.0000 H   0  0  0  0  0  0  0  0  0  0  0  0
   10.9963    4.3289    0.0000 H   0  0  0  0  0  0  0  0  0  0  0  0
    9.0637    4.7218    0.0000 H   0  0  0  0  0  0  0  0  0  0  0  0
    9.0163    3.8462    0.0000 H   0  0  0  0  0  0  0  0  0  0  0  0
    7.1532    1.6640    0.0000 H   0  0  0  0  0  0  0  0  0  0  0  0
    5.8819   -2.8662    0.0000 H   0  0  0  0  0  0  0  0  0  0  0  0
    4.8709   -4.2603    0.0000 H   0  0  0  0  0  0  0  0  0  0  0  0
    2.8660   -1.2462    0.0000 H   0  0  0  0  0  0  0  0  0  0  0  0
    2.8660   -4.4862    0.0000 H   0  0  0  0  0  0  0  0  0  0  0  0
    1.4631   -2.0562    0.0000 H   0  0  0  0  0  0  0  0  0  0  0  0
    1.4631   -3.6762    0.0000 H   0  0  0  0  0  0  0  0  0  0  0  0
  1 16  2  0  0  0  0
  2  8  1  0  0  0  0
  2 16  1  0  0  0  0
  2 41  1  0  0  0  0
  3 15  1  0  0  0  0
  3 17  1  0  0  0  0
  3 43  1  0  0  0  0
  4  5  1  0  0  0  0
  4  6  1  0  0  0  0
  4 22  1  0  0  0  0
  4 23  1  0  0  0  0
  5 13  1  0  0  0  0
  5 14  1  0  0  0  0
  5 24  1  0  0  0  0
  6  8  1  0  0  0  0
  6 25  1  0  0  0  0
  6 26  1  0  0  0  0
  7  9  1  0  0  0  0
  7 10  1  0  0  0  0
  7 27  1  0  0  0  0
  7 28  1  0  0  0  0
  8 29  1  0  0  0  0
  8 30  1  0  0  0  0
  9 11  1  0  0  0  0
  9 31  1  0  0  0  0
  9 32  1  0  0  0  0
 10 12  1  0  0  0  0
 10 17  2  0  0  0  0
 11 16  1  0  0  0  0
 11 33  1  0  0  0  0
 11 34  1  0  0  0  0
 12 15  1  0  0  0  0
 12 18  2  0  0  0  0
 13 36  1  0  0  0  0
 13 37  1  0  0  0  0
 13 38  1  0  0  0  0
 14 35  1  0  0  0  0
 14 39  1  0  0  0  0
 14 40  1  0  0  0  0
 15 19  2  0  0  0  0
 17 42  1  0  0  0  0
 18 20  1  0  0  0  0
 18 44  1  0  0  0  0
 19 21  1  0  0  0  0
 19 45  1  0  0  0  0
 20 21  2  0  0  0  0
 20 46  1  0  0  0  0
 21 47  1  0  0  0  0
M  END
> <PUBCHEM_COMPOUND_CID>
32613515

> <PUBCHEM_COMPOUND_CANONICALIZED>
1

> <PUBCHEM_CACTVS_COMPLEXITY>
316

> <PUBCHEM_CACTVS_HBOND_ACCEPTOR>
1

> <PUBCHEM_CACTVS_HBOND_DONOR>
2

> <PUBCHEM_CACTVS_ROTATABLE_BOND>
8

> <PUBCHEM_CACTVS_SUBSKEYS>
AAADceB7IAAAAAAAAAAAAAAAAAAAAWAAAAAwAAAAAAAAAFgB8AAAHgAQAAAADQjBngQ+wPLJkACoAzV3VACCgCAxAiAI2aE4ZJgIIPLAkZGEIAhglgDIyAcYiMCOgAAAAAACAAAAAAAAAAQAAAAAAAAAAA==

> <PUBCHEM_IUPAC_OPENEYE_NAME>
4-(1H-indol-3-yl)-N-isohexyl-butanamide

> <PUBCHEM_IUPAC_CAS_NAME>
4-(1H-indol-3-yl)-N-(4-methylpentyl)butanamide

> <PUBCHEM_IUPAC_NAME>
4-(1H-indol-3-yl)-N-(4-methylpentyl)butanamide

> <PUBCHEM_IUPAC_SYSTEMATIC_NAME>
4-(1H-indol-3-yl)-N-(4-methylpentyl)butanamide

> <PUBCHEM_IUPAC_TRADITIONAL_NAME>
4-(1H-indol-3-yl)-N-isohexyl-butyramide

> <PUBCHEM_IUPAC_INCHI>
InChI=1S/C18H26N2O/c1-14(2)7-6-12-19-18(21)11-5-8-15-13-20-17-10-4-3-9-16(15)17/h3-4,9-10,13-14,20H,5-8,11-12H2,1-2H3,(H,19,21)

> <PUBCHEM_IUPAC_INCHIKEY>
STBWAFHSNROOCZ-UHFFFAOYSA-N

> <PUBCHEM_XLOGP3>
4.1

> <PUBCHEM_EXACT_MASS>
286.204513

> <PUBCHEM_MOLECULAR_FORMULA>
C18H26N2O

> <PUBCHEM_MOLECULAR_WEIGHT>
286.41184

> <PUBCHEM_OPENEYE_CAN_SMILES>
CC(C)CCCNC(=O)CCCC1=CNC2=CC=CC=C21

> <PUBCHEM_OPENEYE_ISO_SMILES>
CC(C)CCCNC(=O)CCCC1=CNC2=CC=CC=C21

> <PUBCHEM_CACTVS_TPSA>
44.9

> <PUBCHEM_MONOISOTOPIC_WEIGHT>
286.204513

> <PUBCHEM_TOTAL_CHARGE>
0

> <PUBCHEM_HEAVY_ATOM_COUNT>
21

> <PUBCHEM_ATOM_DEF_STEREO_COUNT>
0

> <PUBCHEM_ATOM_UDEF_STEREO_COUNT>
0

> <PUBCHEM_BOND_DEF_STEREO_COUNT>
0

> <PUBCHEM_BOND_UDEF_STEREO_COUNT>
0

> <PUBCHEM_ISOTOPIC_ATOM_COUNT>
0

> <PUBCHEM_COMPONENT_COUNT>
1

> <PUBCHEM_CACTVS_TAUTO_COUNT>
2

> <PUBCHEM_COORDINATE_TYPE>
1
5
255

> <PUBCHEM_BONDANNOTATIONS>
10  12  8
10  17  8
12  15  8
12  18  8
15  19  8
18  20  8
19  21  8
20  21  8
3  15  8
3  17  8

$$$$
32613519
  -OEChem-03221309342D

 41 42  0     0  0  0  0  0  0999 V2000
    6.6353   -1.0707    0.0000 O   0  0  0  0  0  0  0  0  0  0  0  0
    6.2781    0.6241    0.0000 N   0  0  0  0  0  0  0  0  0  0  0  0
    4.6783   -3.0926    0.0000 N   0  0  0  0  0  0  0  0  0  0  0  0
    8.5458    1.9871    0.0000 C   0  0  0  0  0  0  0  0  0  0  0  0
    8.8564    2.9376    0.0000 C   0  0  0  0  0  0  0  0  0  0  0  0
    7.5673    1.7809    0.0000 C   0  0  0  0  0  0  0  0  0  0  0  0
    7.2566    0.8304    0.0000 C   0  0  0  0  0  0  0  0  0  0  0  0
    9.8349    3.1438    0.0000 C   0  0  0  0  0  0  0  0  0  0  0  0
    8.1886    3.6819    0.0000 C   0  0  0  0  0  0  0  0  0  0  0  0
    4.6783   -1.4831    0.0000 C   0  0  0  0  0  0  0  0  0  0  0  0
    4.9889   -0.5326    0.0000 C   0  0  0  0  0  0  0  0  0  0  0  0
    3.7320   -1.7879    0.0000 C   0  0  0  0  0  0  0  0  0  0  0  0
    5.9674   -0.3264    0.0000 C   0  0  0  0  0  0  0  0  0  0  0  0
    3.7320   -2.7879    0.0000 C   0  0  0  0  0  0  0  0  0  0  0  0
    5.2619   -2.2879    0.0000 C   0  0  0  0  0  0  0  0  0  0  0  0
    2.8660   -1.2879    0.0000 C   0  0  0  0  0  0  0  0  0  0  0  0
    2.8660   -3.2879    0.0000 C   0  0  0  0  0  0  0  0  0  0  0  0
    2.0000   -1.7879    0.0000 C   0  0  0  0  0  0  0  0  0  0  0  0
    2.0000   -2.7879    0.0000 C   0  0  0  0  0  0  0  0  0  0  0  0
    8.5663    1.3674    0.0000 H   0  0  0  0  0  0  0  0  0  0  0  0
    9.1596    1.8997    0.0000 H   0  0  0  0  0  0  0  0  0  0  0  0
    9.0490    3.5269    0.0000 H   0  0  0  0  0  0  0  0  0  0  0  0
    7.5467    2.4005    0.0000 H   0  0  0  0  0  0  0  0  0  0  0  0
    6.9534    1.8682    0.0000 H   0  0  0  0  0  0  0  0  0  0  0  0
    7.2772    0.2107    0.0000 H   0  0  0  0  0  0  0  0  0  0  0  0
    7.8704    0.7430    0.0000 H   0  0  0  0  0  0  0  0  0  0  0  0
    8.6501    4.0960    0.0000 H   0  0  0  0  0  0  0  0  0  0  0  0
    9.9628    2.5372    0.0000 H   0  0  0  0  0  0  0  0  0  0  0  0
   10.4416    3.2717    0.0000 H   0  0  0  0  0  0  0  0  0  0  0  0
    9.7071    3.7505    0.0000 H   0  0  0  0  0  0  0  0  0  0  0  0
    7.7745    4.1434    0.0000 H   0  0  0  0  0  0  0  0  0  0  0  0
    7.7271    3.2678    0.0000 H   0  0  0  0  0  0  0  0  0  0  0  0
    4.9684    0.0871    0.0000 H   0  0  0  0  0  0  0  0  0  0  0  0
    4.3751   -0.4453    0.0000 H   0  0  0  0  0  0  0  0  0  0  0  0
    5.8640    1.0856    0.0000 H   0  0  0  0  0  0  0  0  0  0  0  0
    5.8819   -2.2879    0.0000 H   0  0  0  0  0  0  0  0  0  0  0  0
    4.8709   -3.6819    0.0000 H   0  0  0  0  0  0  0  0  0  0  0  0
    2.8660   -0.6679    0.0000 H   0  0  0  0  0  0  0  0  0  0  0  0
    2.8660   -3.9079    0.0000 H   0  0  0  0  0  0  0  0  0  0  0  0
    1.4631   -1.4779    0.0000 H   0  0  0  0  0  0  0  0  0  0  0  0
    1.4631   -3.0979    0.0000 H   0  0  0  0  0  0  0  0  0  0  0  0
  1 13  2  0  0  0  0
  2  7  1  0  0  0  0
  2 13  1  0  0  0  0
  2 35  1  0  0  0  0
  3 14  1  0  0  0  0
  3 15  1  0  0  0  0
  3 37  1  0  0  0  0
  4  5  1  0  0  0  0
  4  6  1  0  0  0  0
  4 20  1  0  0  0  0
  4 21  1  0  0  0  0
  5  8  1  0  0  0  0
  5  9  1  0  0  0  0
  5 22  1  0  0  0  0
  6  7  1  0  0  0  0
  6 23  1  0  0  0  0
  6 24  1  0  0  0  0
  7 25  1  0  0  0  0
  7 26  1  0  0  0  0
  8 28  1  0  0  0  0
  8 29  1  0  0  0  0
  8 30  1  0  0  0  0
  9 27  1  0  0  0  0
  9 31  1  0  0  0  0
  9 32  1  0  0  0  0
 10 11  1  0  0  0  0
 10 12  1  0  0  0  0
 10 15  2  0  0  0  0
 11 13  1  0  0  0  0
 11 33  1  0  0  0  0
 11 34  1  0  0  0  0
 12 14  1  0  0  0  0
 12 16  2  0  0  0  0
 14 17  2  0  0  0  0
 15 36  1  0  0  0  0
 16 18  1  0  0  0  0
 16 38  1  0  0  0  0
 17 19  1  0  0  0  0
 17 39  1  0  0  0  0
 18 19  2  0  0  0  0
 18 40  1  0  0  0  0
 19 41  1  0  0  0  0
M  END
> <PUBCHEM_COMPOUND_CID>
32613519

> <PUBCHEM_COMPOUND_CANONICALIZED>
1

> <PUBCHEM_CACTVS_COMPLEXITY>
291

> <PUBCHEM_CACTVS_HBOND_ACCEPTOR>
1

> <PUBCHEM_CACTVS_HBOND_DONOR>
2

> <PUBCHEM_CACTVS_ROTATABLE_BOND>
6

> <PUBCHEM_CACTVS_SUBSKEYS>
AAADceB7IAAAAAAAAAAAAAAAAAAAAWAAAAAwAAAAAAAAAFgB8AAAHgAQAAAADQjBngQ+wPLJkACoAzV3VACCgCAxAiAI2aE4ZJgIIPLAlZGEIAhglgDIyAccicCegAAAAAACAAAAAAAAAAQAAAAAAAAAAA==

> <PUBCHEM_IUPAC_OPENEYE_NAME>
2-(1H-indol-3-yl)-N-isohexyl-acetamide

> <PUBCHEM_IUPAC_CAS_NAME>
2-(1H-indol-3-yl)-N-(4-methylpentyl)acetamide

> <PUBCHEM_IUPAC_NAME>
2-(1H-indol-3-yl)-N-(4-methylpentyl)acetamide

> <PUBCHEM_IUPAC_SYSTEMATIC_NAME>
2-(1H-indol-3-yl)-N-(4-methylpentyl)ethanamide

> <PUBCHEM_IUPAC_TRADITIONAL_NAME>
2-(1H-indol-3-yl)-N-isohexyl-acetamide

> <PUBCHEM_IUPAC_INCHI>
InChI=1S/C16H22N2O/c1-12(2)6-5-9-17-16(19)10-13-11-18-15-8-4-3-7-14(13)15/h3-4,7-8,11-12,18H,5-6,9-10H2,1-2H3,(H,17,19)

> <PUBCHEM_IUPAC_INCHIKEY>
KMDXBVCLPAFXPE-UHFFFAOYSA-N

> <PUBCHEM_XLOGP3>
3.2

> <PUBCHEM_EXACT_MASS>
258.173213

> <PUBCHEM_MOLECULAR_FORMULA>
C16H22N2O

> <PUBCHEM_MOLECULAR_WEIGHT>
258.35868

> <PUBCHEM_OPENEYE_CAN_SMILES>
CC(C)CCCNC(=O)CC1=CNC2=CC=CC=C21

> <PUBCHEM_OPENEYE_ISO_SMILES>
CC(C)CCCNC(=O)CC1=CNC2=CC=CC=C21

> <PUBCHEM_CACTVS_TPSA>
44.9

> <PUBCHEM_MONOISOTOPIC_WEIGHT>
258.173213

> <PUBCHEM_TOTAL_CHARGE>
0

> <PUBCHEM_HEAVY_ATOM_COUNT>
19

> <PUBCHEM_ATOM_DEF_STEREO_COUNT>
0

> <PUBCHEM_ATOM_UDEF_STEREO_COUNT>
0

> <PUBCHEM_BOND_DEF_STEREO_COUNT>
0

> <PUBCHEM_BOND_UDEF_STEREO_COUNT>
0

> <PUBCHEM_ISOTOPIC_ATOM_COUNT>
0

> <PUBCHEM_COMPONENT_COUNT>
1

> <PUBCHEM_CACTVS_TAUTO_COUNT>
2

> <PUBCHEM_COORDINATE_TYPE>
1
5
255

> <PUBCHEM_BONDANNOTATIONS>
10  12  8
10  15  8
12  14  8
12  16  8
14  17  8
16  18  8
17  19  8
18  19  8
3  14  8
3  15  8

$$$$
32614126
  -OEChem-03221309342D

 38 40  0     0  0  0  0  0  0999 V2000
    5.4641   -0.4330    0.0000 O   0  0  0  0  0  0  0  0  0  0  0  0
    4.5981    1.0670    0.0000 N   0  0  0  0  0  0  0  0  0  0  0  0
    3.7320   -0.4330    0.0000 N   0  0  0  0  0  0  0  0  0  0  0  0
    5.4641    2.5670    0.0000 C   0  0  0  0  0  0  0  0  0  0  0  0
    6.3301    1.0670    0.0000 C   0  0  0  0  0  0  0  0  0  0  0  0
    5.4641    1.5670    0.0000 C   0  0  0  0  0  0  0  0  0  0  0  0
    5.9641    3.4330    0.0000 C   0  0  0  0  0  0  0  0  0  0  0  0
    4.9641    3.4330    0.0000 C   0  0  0  0  0  0  0  0  0  0  0  0
    6.8301    0.2010    0.0000 C   0  0  0  0  0  0  0  0  0  0  0  0
    7.3301    1.0670    0.0000 C   0  0  0  0  0  0  0  0  0  0  0  0
    4.5981    0.0670    0.0000 C   0  0  0  0  0  0  0  0  0  0  0  0
    3.7320   -1.4330    0.0000 C   0  0  0  0  0  0  0  0  0  0  0  0
    2.8660   -1.9330    0.0000 C   0  0  0  0  0  0  0  0  0  0  0  0
    4.5981   -1.9330    0.0000 C   0  0  0  0  0  0  0  0  0  0  0  0
    2.8660   -2.9330    0.0000 C   0  0  0  0  0  0  0  0  0  0  0  0
    4.5981   -2.9330    0.0000 C   0  0  0  0  0  0  0  0  0  0  0  0
    3.7320   -3.4330    0.0000 C   0  0  0  0  0  0  0  0  0  0  0  0
    2.0000   -3.4330    0.0000 C   0  0  0  0  0  0  0  0  0  0  0  0
    6.0630    2.4065    0.0000 H   0  0  0  0  0  0  0  0  0  0  0  0
    6.4906    1.6659    0.0000 H   0  0  0  0  0  0  0  0  0  0  0  0
    5.4641    0.9470    0.0000 H   0  0  0  0  0  0  0  0  0  0  0  0
    6.5467    3.2210    0.0000 H   0  0  0  0  0  0  0  0  0  0  0  0
    6.0718    4.0436    0.0000 H   0  0  0  0  0  0  0  0  0  0  0  0
    4.8564    4.0436    0.0000 H   0  0  0  0  0  0  0  0  0  0  0  0
    4.3815    3.2210    0.0000 H   0  0  0  0  0  0  0  0  0  0  0  0
    6.3552   -0.1976    0.0000 H   0  0  0  0  0  0  0  0  0  0  0  0
    7.3051   -0.1976    0.0000 H   0  0  0  0  0  0  0  0  0  0  0  0
    7.9127    0.8549    0.0000 H   0  0  0  0  0  0  0  0  0  0  0  0
    7.4378    1.6776    0.0000 H   0  0  0  0  0  0  0  0  0  0  0  0
    4.0611    1.3770    0.0000 H   0  0  0  0  0  0  0  0  0  0  0  0
    3.1951   -0.1230    0.0000 H   0  0  0  0  0  0  0  0  0  0  0  0
    2.3291   -1.6230    0.0000 H   0  0  0  0  0  0  0  0  0  0  0  0
    5.1350   -1.6230    0.0000 H   0  0  0  0  0  0  0  0  0  0  0  0
    5.1350   -3.2430    0.0000 H   0  0  0  0  0  0  0  0  0  0  0  0
    3.7320   -4.0530    0.0000 H   0  0  0  0  0  0  0  0  0  0  0  0
    1.6900   -2.8961    0.0000 H   0  0  0  0  0  0  0  0  0  0  0  0
    1.4631   -3.7430    0.0000 H   0  0  0  0  0  0  0  0  0  0  0  0
    2.3100   -3.9700    0.0000 H   0  0  0  0  0  0  0  0  0  0  0  0
  1 11  2  0  0  0  0
  2  6  1  0  0  0  0
  2 11  1  0  0  0  0
  2 30  1  0  0  0  0
  3 11  1  0  0  0  0
  3 12  1  0  0  0  0
  3 31  1  0  0  0  0
  4  6  1  0  0  0  0
  4  7  1  0  0  0  0
  4  8  1  0  0  0  0
  4 19  1  0  0  0  0
  5  6  1  0  0  0  0
  5  9  1  0  0  0  0
  5 10  1  0  0  0  0
  5 20  1  0  0  0  0
  6 21  1  0  0  0  0
  7  8  1  0  0  0  0
  7 22  1  0  0  0  0
  7 23  1  0  0  0  0
  8 24  1  0  0  0  0
  8 25  1  0  0  0  0
  9 10  1  0  0  0  0
  9 26  1  0  0  0  0
  9 27  1  0  0  0  0
 10 28  1  0  0  0  0
 10 29  1  0  0  0  0
 12 13  1  0  0  0  0
 12 14  2  0  0  0  0
 13 15  2  0  0  0  0
 13 32  1  0  0  0  0
 14 16  1  0  0  0  0
 14 33  1  0  0  0  0
 15 17  1  0  0  0  0
 15 18  1  0  0  0  0
 16 17  2  0  0  0  0
 16 34  1  0  0  0  0
 17 35  1  0  0  0  0
 18 36  1  0  0  0  0
 18 37  1  0  0  0  0
 18 38  1  0  0  0  0
M  END
> <PUBCHEM_COMPOUND_CID>
32614126

> <PUBCHEM_COMPOUND_CANONICALIZED>
1

> <PUBCHEM_CACTVS_COMPLEXITY>
298

> <PUBCHEM_CACTVS_HBOND_ACCEPTOR>
1

> <PUBCHEM_CACTVS_HBOND_DONOR>
2

> <PUBCHEM_CACTVS_ROTATABLE_BOND>
4

> <PUBCHEM_CACTVS_SUBSKEYS>
AAADceBzIAAAAAAAAAAAAAAAGDAAAAAAAAAwAAAAAAAAAAABAAAAHgAQAAAADSjBGAQzwILAAACIAiRCUACCAAAhAgAIiIAIZIiIICLAkZGEIAholgJIyCcQgAAOAAAAQAAAAAAAAACAAAAAAAAAAAAAAA==

> <PUBCHEM_IUPAC_OPENEYE_NAME>
1-(dicyclopropylmethyl)-3-(m-tolyl)urea

> <PUBCHEM_IUPAC_CAS_NAME>
1-(dicyclopropylmethyl)-3-(3-methylphenyl)urea

> <PUBCHEM_IUPAC_NAME>
1-(dicyclopropylmethyl)-3-(3-methylphenyl)urea

> <PUBCHEM_IUPAC_SYSTEMATIC_NAME>
1-(dicyclopropylmethyl)-3-(3-methylphenyl)urea

> <PUBCHEM_IUPAC_TRADITIONAL_NAME>
1-(dicyclopropylmethyl)-3-(m-tolyl)urea

> <PUBCHEM_IUPAC_INCHI>
InChI=1S/C15H20N2O/c1-10-3-2-4-13(9-10)16-15(18)17-14(11-5-6-11)12-7-8-12/h2-4,9,11-12,14H,5-8H2,1H3,(H2,16,17,18)

> <PUBCHEM_IUPAC_INCHIKEY>
KDIQVQYLFQJFAJ-UHFFFAOYSA-N

> <PUBCHEM_XLOGP3>
3.1

> <PUBCHEM_EXACT_MASS>
244.157563

> <PUBCHEM_MOLECULAR_FORMULA>
C15H20N2O

> <PUBCHEM_MOLECULAR_WEIGHT>
244.3321

> <PUBCHEM_OPENEYE_CAN_SMILES>
CC1=CC(=CC=C1)NC(=O)NC(C2CC2)C3CC3

> <PUBCHEM_OPENEYE_ISO_SMILES>
CC1=CC(=CC=C1)NC(=O)NC(C2CC2)C3CC3

> <PUBCHEM_CACTVS_TPSA>
41.1

> <PUBCHEM_MONOISOTOPIC_WEIGHT>
244.157563

> <PUBCHEM_TOTAL_CHARGE>
0

> <PUBCHEM_HEAVY_ATOM_COUNT>
18

> <PUBCHEM_ATOM_DEF_STEREO_COUNT>
0

> <PUBCHEM_ATOM_UDEF_STEREO_COUNT>
0

> <PUBCHEM_BOND_DEF_STEREO_COUNT>
0

> <PUBCHEM_BOND_UDEF_STEREO_COUNT>
0

> <PUBCHEM_ISOTOPIC_ATOM_COUNT>
0

> <PUBCHEM_COMPONENT_COUNT>
1

> <PUBCHEM_CACTVS_TAUTO_COUNT>
3

> <PUBCHEM_COORDINATE_TYPE>
1
5
255

> <PUBCHEM_BONDANNOTATIONS>
12  13  8
12  14  8
13  15  8
14  16  8
15  17  8
16  17  8

$$$$
32614144
  -OEChem-03221309342D

 41 44  0     0  0  0  0  0  0999 V2000
    3.8660    0.4157    0.0000 O   0  0  0  0  0  0  0  0  0  0  0  0
    4.7320   -1.0843    0.0000 N   0  0  0  0  0  0  0  0  0  0  0  0
    5.5981    0.4157    0.0000 N   0  0  0  0  0  0  0  0  0  0  0  0
    3.8660   -2.5843    0.0000 C   0  0  0  0  0  0  0  0  0  0  0  0
    3.0000   -1.0843    0.0000 C   0  0  0  0  0  0  0  0  0  0  0  0
    3.8660   -1.5843    0.0000 C   0  0  0  0  0  0  0  0  0  0  0  0
    3.3660   -3.4503    0.0000 C   0  0  0  0  0  0  0  0  0  0  0  0
    4.3660   -3.4503    0.0000 C   0  0  0  0  0  0  0  0  0  0  0  0
    2.5000   -0.2183    0.0000 C   0  0  0  0  0  0  0  0  0  0  0  0
    2.0000   -1.0843    0.0000 C   0  0  0  0  0  0  0  0  0  0  0  0
    4.7320   -0.0843    0.0000 C   0  0  0  0  0  0  0  0  0  0  0  0
    5.5981    1.4157    0.0000 C   0  0  0  0  0  0  0  0  0  0  0  0
    6.4641    1.9157    0.0000 C   0  0  0  0  0  0  0  0  0  0  0  0
    4.7320    1.9157    0.0000 C   0  0  0  0  0  0  0  0  0  0  0  0
    6.4641    2.9157    0.0000 C   0  0  0  0  0  0  0  0  0  0  0  0
    7.3580    1.3810    0.0000 C   0  0  0  0  0  0  0  0  0  0  0  0
    4.7320    2.9157    0.0000 C   0  0  0  0  0  0  0  0  0  0  0  0
    5.5981    3.4157    0.0000 C   0  0  0  0  0  0  0  0  0  0  0  0
    7.3580    3.4503    0.0000 C   0  0  0  0  0  0  0  0  0  0  0  0
    8.2641    1.8949    0.0000 C   0  0  0  0  0  0  0  0  0  0  0  0
    8.2641    2.9365    0.0000 C   0  0  0  0  0  0  0  0  0  0  0  0
    4.4649   -2.4238    0.0000 H   0  0  0  0  0  0  0  0  0  0  0  0
    2.8395   -1.6832    0.0000 H   0  0  0  0  0  0  0  0  0  0  0  0
    3.8660   -0.9643    0.0000 H   0  0  0  0  0  0  0  0  0  0  0  0
    2.7834   -3.2383    0.0000 H   0  0  0  0  0  0  0  0  0  0  0  0
    3.2584   -4.0609    0.0000 H   0  0  0  0  0  0  0  0  0  0  0  0
    4.4737   -4.0609    0.0000 H   0  0  0  0  0  0  0  0  0  0  0  0
    4.9486   -3.2383    0.0000 H   0  0  0  0  0  0  0  0  0  0  0  0
    2.9750    0.1802    0.0000 H   0  0  0  0  0  0  0  0  0  0  0  0
    2.0250    0.1802    0.0000 H   0  0  0  0  0  0  0  0  0  0  0  0
    1.4174   -0.8723    0.0000 H   0  0  0  0  0  0  0  0  0  0  0  0
    1.8923   -1.6949    0.0000 H   0  0  0  0  0  0  0  0  0  0  0  0
    5.2690   -1.3943    0.0000 H   0  0  0  0  0  0  0  0  0  0  0  0
    6.1350    0.1057    0.0000 H   0  0  0  0  0  0  0  0  0  0  0  0
    4.1951    1.6057    0.0000 H   0  0  0  0  0  0  0  0  0  0  0  0
    7.3509    0.7611    0.0000 H   0  0  0  0  0  0  0  0  0  0  0  0
    4.1951    3.2257    0.0000 H   0  0  0  0  0  0  0  0  0  0  0  0
    5.5981    4.0357    0.0000 H   0  0  0  0  0  0  0  0  0  0  0  0
    7.3509    4.0703    0.0000 H   0  0  0  0  0  0  0  0  0  0  0  0
    8.7998    1.5828    0.0000 H   0  0  0  0  0  0  0  0  0  0  0  0
    8.7998    3.2486    0.0000 H   0  0  0  0  0  0  0  0  0  0  0  0
  1 11  2  0  0  0  0
  2  6  1  0  0  0  0
  2 11  1  0  0  0  0
  2 33  1  0  0  0  0
  3 11  1  0  0  0  0
  3 12  1  0  0  0  0
  3 34  1  0  0  0  0
  4  6  1  0  0  0  0
  4  7  1  0  0  0  0
  4  8  1  0  0  0  0
  4 22  1  0  0  0  0
  5  6  1  0  0  0  0
  5  9  1  0  0  0  0
  5 10  1  0  0  0  0
  5 23  1  0  0  0  0
  6 24  1  0  0  0  0
  7  8  1  0  0  0  0
  7 25  1  0  0  0  0
  7 26  1  0  0  0  0
  8 27  1  0  0  0  0
  8 28  1  0  0  0  0
  9 10  1  0  0  0  0
  9 29  1  0  0  0  0
  9 30  1  0  0  0  0
 10 31  1  0  0  0  0
 10 32  1  0  0  0  0
 12 13  1  0  0  0  0
 12 14  2  0  0  0  0
 13 15  1  0  0  0  0
 13 16  2  0  0  0  0
 14 17  1  0  0  0  0
 14 35  1  0  0  0  0
 15 18  1  0  0  0  0
 15 19  2  0  0  0  0
 16 20  1  0  0  0  0
 16 36  1  0  0  0  0
 17 18  2  0  0  0  0
 17 37  1  0  0  0  0
 18 38  1  0  0  0  0
 19 21  1  0  0  0  0
 19 39  1  0  0  0  0
 20 21  2  0  0  0  0
 20 40  1  0  0  0  0
 21 41  1  0  0  0  0
M  END
> <PUBCHEM_COMPOUND_CID>
32614144

> <PUBCHEM_COMPOUND_CANONICALIZED>
1

> <PUBCHEM_CACTVS_COMPLEXITY>
377

> <PUBCHEM_CACTVS_HBOND_ACCEPTOR>
1

> <PUBCHEM_CACTVS_HBOND_DONOR>
2

> <PUBCHEM_CACTVS_ROTATABLE_BOND>
4

> <PUBCHEM_CACTVS_SUBSKEYS>
AAADceB7IAAAAAAAAAAAAAAAGDAAAAAAAAAwYAAAAAAAAADBUAAAHgAQAAAADSjBGAQxwMLAAACIAiRCUACCAAAhAgAIiIAIZIiIICLAkZGEIAholgJIyCcQgIAOgAAAQAASAAAAAACAACQAAAAAAAAAAA==

> <PUBCHEM_IUPAC_OPENEYE_NAME>
1-(dicyclopropylmethyl)-3-(1-naphthyl)urea

> <PUBCHEM_IUPAC_CAS_NAME>
1-(dicyclopropylmethyl)-3-(1-naphthalenyl)urea

> <PUBCHEM_IUPAC_NAME>
1-(dicyclopropylmethyl)-3-naphthalen-1-ylurea

> <PUBCHEM_IUPAC_SYSTEMATIC_NAME>
1-(dicyclopropylmethyl)-3-naphthalen-1-yl-urea

> <PUBCHEM_IUPAC_TRADITIONAL_NAME>
1-(dicyclopropylmethyl)-3-(1-naphthyl)urea

> <PUBCHEM_IUPAC_INCHI>
InChI=1S/C18H20N2O/c21-18(20-17(13-8-9-13)14-10-11-14)19-16-7-3-5-12-4-1-2-6-15(12)16/h1-7,13-14,17H,8-11H2,(H2,19,20,21)

> <PUBCHEM_IUPAC_INCHIKEY>
DCTZBGUKLLSUBE-UHFFFAOYSA-N

> <PUBCHEM_XLOGP3>
3

> <PUBCHEM_EXACT_MASS>
280.157563

> <PUBCHEM_MOLECULAR_FORMULA>
C18H20N2O

> <PUBCHEM_MOLECULAR_WEIGHT>
280.3642

> <PUBCHEM_OPENEYE_CAN_SMILES>
C1CC1C(C2CC2)NC(=O)NC3=CC=CC4=CC=CC=C43

> <PUBCHEM_OPENEYE_ISO_SMILES>
C1CC1C(C2CC2)NC(=O)NC3=CC=CC4=CC=CC=C43

> <PUBCHEM_CACTVS_TPSA>
41.1

> <PUBCHEM_MONOISOTOPIC_WEIGHT>
280.157563

> <PUBCHEM_TOTAL_CHARGE>
0

> <PUBCHEM_HEAVY_ATOM_COUNT>
21

> <PUBCHEM_ATOM_DEF_STEREO_COUNT>
0

> <PUBCHEM_ATOM_UDEF_STEREO_COUNT>
0

> <PUBCHEM_BOND_DEF_STEREO_COUNT>
0

> <PUBCHEM_BOND_UDEF_STEREO_COUNT>
0

> <PUBCHEM_ISOTOPIC_ATOM_COUNT>
0

> <PUBCHEM_COMPONENT_COUNT>
1

> <PUBCHEM_CACTVS_TAUTO_COUNT>
3

> <PUBCHEM_COORDINATE_TYPE>
1
5
255

> <PUBCHEM_BONDANNOTATIONS>
12  13  8
12  14  8
13  15  8
13  16  8
14  17  8
15  18  8
15  19  8
16  20  8
17  18  8
19  21  8
20  21  8

$$$$
