16876292
  -OEChem-06111304112D

 46 46  0     0  0  0  0  0  0999 V2000
    5.9249    0.9076    0.0000 O   0  0  0  0  0  0  0  0  0  0  0  0
    4.5981   -0.2057    0.0000 N   0  0  0  0  0  0  0  0  0  0  0  0
    4.5981   -1.2057    0.0000 C   0  0  0  0  0  0  0  0  0  0  0  0
    3.7320   -1.7057    0.0000 C   0  0  0  0  0  0  0  0  0  0  0  0
    5.4641   -1.7057    0.0000 C   0  0  0  0  0  0  0  0  0  0  0  0
    2.8660   -1.2057    0.0000 C   0  0  0  0  0  0  0  0  0  0  0  0
    6.3301   -1.2057    0.0000 C   0  0  0  0  0  0  0  0  0  0  0  0
    4.6393    2.4397    0.0000 C   0  0  0  0  0  0  0  0  0  0  0  0
    4.2973    1.5000    0.0000 C   0  0  0  0  0  0  0  0  0  0  0  0
    3.7320   -2.7057    0.0000 C   0  0  0  0  0  0  0  0  0  0  0  0
    5.4641   -2.7057    0.0000 C   0  0  0  0  0  0  0  0  0  0  0  0
    2.0000   -1.7057    0.0000 C   0  0  0  0  0  0  0  0  0  0  0  0
    2.8660   -0.2057    0.0000 C   0  0  0  0  0  0  0  0  0  0  0  0
    7.1962   -1.7057    0.0000 C   0  0  0  0  0  0  0  0  0  0  0  0
    6.9729   -0.4397    0.0000 C   0  0  0  0  0  0  0  0  0  0  0  0
    4.9401    0.7340    0.0000 C   0  0  0  0  0  0  0  0  0  0  0  0
    4.5981   -3.2057    0.0000 C   0  0  0  0  0  0  0  0  0  0  0  0
    3.9965    3.2057    0.0000 C   0  0  0  0  0  0  0  0  0  0  0  0
    5.6241    2.6133    0.0000 C   0  0  0  0  0  0  0  0  0  0  0  0
    2.8660   -1.8257    0.0000 H   0  0  0  0  0  0  0  0  0  0  0  0
    5.9316   -0.7308    0.0000 H   0  0  0  0  0  0  0  0  0  0  0  0
    4.8514    3.0223    0.0000 H   0  0  0  0  0  0  0  0  0  0  0  0
    4.0611    0.1043    0.0000 H   0  0  0  0  0  0  0  0  0  0  0  0
    3.7604    1.8100    0.0000 H   0  0  0  0  0  0  0  0  0  0  0  0
    3.8988    1.0250    0.0000 H   0  0  0  0  0  0  0  0  0  0  0  0
    3.1951   -3.0157    0.0000 H   0  0  0  0  0  0  0  0  0  0  0  0
    6.0010   -3.0157    0.0000 H   0  0  0  0  0  0  0  0  0  0  0  0
    1.6900   -1.1688    0.0000 H   0  0  0  0  0  0  0  0  0  0  0  0
    3.4860   -0.2057    0.0000 H   0  0  0  0  0  0  0  0  0  0  0  0
    2.8660    0.4143    0.0000 H   0  0  0  0  0  0  0  0  0  0  0  0
    2.2460   -0.2057    0.0000 H   0  0  0  0  0  0  0  0  0  0  0  0
    1.4631   -2.0157    0.0000 H   0  0  0  0  0  0  0  0  0  0  0  0
    2.3100   -2.2427    0.0000 H   0  0  0  0  0  0  0  0  0  0  0  0
    7.4479   -0.8382    0.0000 H   0  0  0  0  0  0  0  0  0  0  0  0
    7.3714    0.0353    0.0000 H   0  0  0  0  0  0  0  0  0  0  0  0
    6.4980   -0.0412    0.0000 H   0  0  0  0  0  0  0  0  0  0  0  0
    6.8862   -2.2427    0.0000 H   0  0  0  0  0  0  0  0  0  0  0  0
    7.7331   -2.0157    0.0000 H   0  0  0  0  0  0  0  0  0  0  0  0
    7.5062   -1.1688    0.0000 H   0  0  0  0  0  0  0  0  0  0  0  0
    4.5981   -3.8257    0.0000 H   0  0  0  0  0  0  0  0  0  0  0  0
    4.4715    3.6043    0.0000 H   0  0  0  0  0  0  0  0  0  0  0  0
    3.5980    3.6807    0.0000 H   0  0  0  0  0  0  0  0  0  0  0  0
    3.5216    2.8072    0.0000 H   0  0  0  0  0  0  0  0  0  0  0  0
    5.7318    2.0028    0.0000 H   0  0  0  0  0  0  0  0  0  0  0  0
    6.2347    2.7210    0.0000 H   0  0  0  0  0  0  0  0  0  0  0  0
    5.5165    3.2239    0.0000 H   0  0  0  0  0  0  0  0  0  0  0  0
  1 16  2  0  0  0  0
  2  3  1  0  0  0  0
  2 16  1  0  0  0  0
  2 23  1  0  0  0  0
  3  4  2  0  0  0  0
  3  5  1  0  0  0  0
  4  6  1  0  0  0  0
  4 10  1  0  0  0  0
  5  7  1  0  0  0  0
  5 11  2  0  0  0  0
  6 12  1  0  0  0  0
  6 13  1  0  0  0  0
  6 20  1  0  0  0  0
  7 14  1  0  0  0  0
  7 15  1  0  0  0  0
  7 21  1  0  0  0  0
  8  9  1  0  0  0  0
  8 18  1  0  0  0  0
  8 19  1  0  0  0  0
  8 22  1  0  0  0  0
  9 16  1  0  0  0  0
  9 24  1  0  0  0  0
  9 25  1  0  0  0  0
 10 17  2  0  0  0  0
 10 26  1  0  0  0  0
 11 17  1  0  0  0  0
 11 27  1  0  0  0  0
 12 28  1  0  0  0  0
 12 32  1  0  0  0  0
 12 33  1  0  0  0  0
 13 29  1  0  0  0  0
 13 30  1  0  0  0  0
 13 31  1  0  0  0  0
 14 37  1  0  0  0  0
 14 38  1  0  0  0  0
 14 39  1  0  0  0  0
 15 34  1  0  0  0  0
 15 35  1  0  0  0  0
 15 36  1  0  0  0  0
 17 40  1  0  0  0  0
 18 41  1  0  0  0  0
 18 42  1  0  0  0  0
 18 43  1  0  0  0  0
 19 44  1  0  0  0  0
 19 45  1  0  0  0  0
 19 46  1  0  0  0  0
M  END
> <PUBCHEM_COMPOUND_CID>
16876292

> <PUBCHEM_COMPOUND_CANONICALIZED>
1

> <PUBCHEM_CACTVS_COMPLEXITY>
267

> <PUBCHEM_CACTVS_HBOND_ACCEPTOR>
1

> <PUBCHEM_CACTVS_HBOND_DONOR>
1

> <PUBCHEM_CACTVS_ROTATABLE_BOND>
5

> <PUBCHEM_CACTVS_SUBSKEYS>
AAADceB6IAAAAAAAAAAAAAAAAAAAAAAAAAAwAAAAAAAAAAABAAAAHgAQAAAADQiBmAAywILAAACIAiVSUACCAAAhAAAIiAEARIgIIDLAkZGEIAhglADIyAcQgMAOgAACAAACAAAAAAQAAAQAAAAAAAAAAA==

> <PUBCHEM_IUPAC_OPENEYE_NAME>
N-(2,6-diisopropylphenyl)-3-methyl-butanamide

> <PUBCHEM_IUPAC_CAS_NAME>
N-[2,6-di(propan-2-yl)phenyl]-3-methylbutanamide

> <PUBCHEM_IUPAC_NAME>
N-[2,6-di(propan-2-yl)phenyl]-3-methylbutanamide

> <PUBCHEM_IUPAC_SYSTEMATIC_NAME>
N-[2,6-di(propan-2-yl)phenyl]-3-methyl-butanamide

> <PUBCHEM_IUPAC_TRADITIONAL_NAME>
N-(2,6-diisopropylphenyl)-3-methyl-butyramide

> <PUBCHEM_IUPAC_INCHI>
InChI=1S/C17H27NO/c1-11(2)10-16(19)18-17-14(12(3)4)8-7-9-15(17)13(5)6/h7-9,11-13H,10H2,1-6H3,(H,18,19)

> <PUBCHEM_IUPAC_INCHIKEY>
SVBIWEGCLARFKW-UHFFFAOYSA-N

> <PUBCHEM_XLOGP3>
3.7

> <PUBCHEM_EXACT_MASS>
261.209264

> <PUBCHEM_MOLECULAR_FORMULA>
C17H27NO

> <PUBCHEM_MOLECULAR_WEIGHT>
261.40238

> <PUBCHEM_OPENEYE_CAN_SMILES>
CC(C)CC(=O)NC1=C(C=CC=C1C(C)C)C(C)C

> <PUBCHEM_OPENEYE_ISO_SMILES>
CC(C)CC(=O)NC1=C(C=CC=C1C(C)C)C(C)C

> <PUBCHEM_CACTVS_TPSA>
29.1

> <PUBCHEM_MONOISOTOPIC_WEIGHT>
261.209264

> <PUBCHEM_TOTAL_CHARGE>
0

> <PUBCHEM_HEAVY_ATOM_COUNT>
19

> <PUBCHEM_ATOM_DEF_STEREO_COUNT>
0

> <PUBCHEM_ATOM_UDEF_STEREO_COUNT>
0

> <PUBCHEM_BOND_DEF_STEREO_COUNT>
0

> <PUBCHEM_BOND_UDEF_STEREO_COUNT>
0

> <PUBCHEM_ISOTOPIC_ATOM_COUNT>
0

> <PUBCHEM_COMPONENT_COUNT>
1

> <PUBCHEM_CACTVS_TAUTO_COUNT>
3

> <PUBCHEM_COORDINATE_TYPE>
1
5
255

> <PUBCHEM_BONDANNOTATIONS>
10  17  8
11  17  8
3  4  8
3  5  8
4  10  8
5  11  8

$$$$
16876294
  -OEChem-06111304112D

 31 31  0     0  0  0  0  0  0999 V2000
    3.7320   -3.5000    0.0000 Cl  0  0  0  0  0  0  0  0  0  0  0  0
    5.4641    0.5000    0.0000 O   0  0  0  0  0  0  0  0  0  0  0  0
    3.7320    0.5000    0.0000 N   0  0  0  0  0  0  0  0  0  0  0  0
    5.4641    2.5000    0.0000 C   0  0  0  0  0  0  0  0  0  0  0  0
    4.5981    2.0000    0.0000 C   0  0  0  0  0  0  0  0  0  0  0  0
    5.4641    3.5000    0.0000 C   0  0  0  0  0  0  0  0  0  0  0  0
    6.3301    2.0000    0.0000 C   0  0  0  0  0  0  0  0  0  0  0  0
    4.5981    1.0000    0.0000 C   0  0  0  0  0  0  0  0  0  0  0  0
    3.7320   -0.5000    0.0000 C   0  0  0  0  0  0  0  0  0  0  0  0
    2.8660   -1.0000    0.0000 C   0  0  0  0  0  0  0  0  0  0  0  0
    4.5981   -1.0000    0.0000 C   0  0  0  0  0  0  0  0  0  0  0  0
    2.8660   -2.0000    0.0000 C   0  0  0  0  0  0  0  0  0  0  0  0
    2.0000   -0.5000    0.0000 C   0  0  0  0  0  0  0  0  0  0  0  0
    4.5981   -2.0000    0.0000 C   0  0  0  0  0  0  0  0  0  0  0  0
    3.7320   -2.5000    0.0000 C   0  0  0  0  0  0  0  0  0  0  0  0
    5.4641    1.8800    0.0000 H   0  0  0  0  0  0  0  0  0  0  0  0
    4.3860    2.5826    0.0000 H   0  0  0  0  0  0  0  0  0  0  0  0
    3.9875    1.8923    0.0000 H   0  0  0  0  0  0  0  0  0  0  0  0
    6.0841    3.5000    0.0000 H   0  0  0  0  0  0  0  0  0  0  0  0
    5.4641    4.1200    0.0000 H   0  0  0  0  0  0  0  0  0  0  0  0
    4.8441    3.5000    0.0000 H   0  0  0  0  0  0  0  0  0  0  0  0
    6.0201    1.4631    0.0000 H   0  0  0  0  0  0  0  0  0  0  0  0
    6.8671    1.6900    0.0000 H   0  0  0  0  0  0  0  0  0  0  0  0
    6.6401    2.5369    0.0000 H   0  0  0  0  0  0  0  0  0  0  0  0
    3.1951    0.8100    0.0000 H   0  0  0  0  0  0  0  0  0  0  0  0
    5.1350   -0.6900    0.0000 H   0  0  0  0  0  0  0  0  0  0  0  0
    2.3291   -2.3100    0.0000 H   0  0  0  0  0  0  0  0  0  0  0  0
    2.3100    0.0369    0.0000 H   0  0  0  0  0  0  0  0  0  0  0  0
    1.4631   -0.1900    0.0000 H   0  0  0  0  0  0  0  0  0  0  0  0
    1.6900   -1.0369    0.0000 H   0  0  0  0  0  0  0  0  0  0  0  0
    5.1350   -2.3100    0.0000 H   0  0  0  0  0  0  0  0  0  0  0  0
  1 15  1  0  0  0  0
  2  8  2  0  0  0  0
  3  8  1  0  0  0  0
  3  9  1  0  0  0  0
  3 25  1  0  0  0  0
  4  5  1  0  0  0  0
  4  6  1  0  0  0  0
  4  7  1  0  0  0  0
  4 16  1  0  0  0  0
  5  8  1  0  0  0  0
  5 17  1  0  0  0  0
  5 18  1  0  0  0  0
  6 19  1  0  0  0  0
  6 20  1  0  0  0  0
  6 21  1  0  0  0  0
  7 22  1  0  0  0  0
  7 23  1  0  0  0  0
  7 24  1  0  0  0  0
  9 10  2  0  0  0  0
  9 11  1  0  0  0  0
 10 12  1  0  0  0  0
 10 13  1  0  0  0  0
 11 14  2  0  0  0  0
 11 26  1  0  0  0  0
 12 15  2  0  0  0  0
 12 27  1  0  0  0  0
 13 28  1  0  0  0  0
 13 29  1  0  0  0  0
 13 30  1  0  0  0  0
 14 15  1  0  0  0  0
 14 31  1  0  0  0  0
M  END
> <PUBCHEM_COMPOUND_CID>
16876294

> <PUBCHEM_COMPOUND_CANONICALIZED>
1

> <PUBCHEM_CACTVS_COMPLEXITY>
218

> <PUBCHEM_CACTVS_HBOND_ACCEPTOR>
1

> <PUBCHEM_CACTVS_HBOND_DONOR>
1

> <PUBCHEM_CACTVS_ROTATABLE_BOND>
3

> <PUBCHEM_CACTVS_SUBSKEYS>
AAADceByIAAEAAAAAAAAAAAAAAAAAAAAAAAwAAAAAAAAAAABAAAAHgIQAAAADQqBmCAywILAAACIAiVSUACCAAAhBwAIiAEAZogIIDLBk5GEIAhglADIyAcQgAAOAABAIAACAAAAAIBAAAQAAAAAAAAAAA==

> <PUBCHEM_IUPAC_OPENEYE_NAME>
N-(4-chloro-2-methyl-phenyl)-3-methyl-butanamide

> <PUBCHEM_IUPAC_CAS_NAME>
N-(4-chloro-2-methylphenyl)-3-methylbutanamide

> <PUBCHEM_IUPAC_NAME>
N-(4-chloro-2-methylphenyl)-3-methylbutanamide

> <PUBCHEM_IUPAC_SYSTEMATIC_NAME>
N-(4-chloranyl-2-methyl-phenyl)-3-methyl-butanamide

> <PUBCHEM_IUPAC_TRADITIONAL_NAME>
N-(4-chloro-2-methyl-phenyl)-3-methyl-butyramide

> <PUBCHEM_IUPAC_INCHI>
InChI=1S/C12H16ClNO/c1-8(2)6-12(15)14-11-5-4-10(13)7-9(11)3/h4-5,7-8H,6H2,1-3H3,(H,14,15)

> <PUBCHEM_IUPAC_INCHIKEY>
UFPZIQYNMDUNRK-UHFFFAOYSA-N

> <PUBCHEM_XLOGP3>
3.2

> <PUBCHEM_EXACT_MASS>
225.092042

> <PUBCHEM_MOLECULAR_FORMULA>
C12H16ClNO

> <PUBCHEM_MOLECULAR_WEIGHT>
225.71454

> <PUBCHEM_OPENEYE_CAN_SMILES>
CC1=C(C=CC(=C1)Cl)NC(=O)CC(C)C

> <PUBCHEM_OPENEYE_ISO_SMILES>
CC1=C(C=CC(=C1)Cl)NC(=O)CC(C)C

> <PUBCHEM_CACTVS_TPSA>
29.1

> <PUBCHEM_MONOISOTOPIC_WEIGHT>
225.092042

> <PUBCHEM_TOTAL_CHARGE>
0

> <PUBCHEM_HEAVY_ATOM_COUNT>
15

> <PUBCHEM_ATOM_DEF_STEREO_COUNT>
0

> <PUBCHEM_ATOM_UDEF_STEREO_COUNT>
0

> <PUBCHEM_BOND_DEF_STEREO_COUNT>
0

> <PUBCHEM_BOND_UDEF_STEREO_COUNT>
0

> <PUBCHEM_ISOTOPIC_ATOM_COUNT>
0

> <PUBCHEM_COMPONENT_COUNT>
1

> <PUBCHEM_CACTVS_TAUTO_COUNT>
3

> <PUBCHEM_COORDINATE_TYPE>
1
5
255

> <PUBCHEM_BONDANNOTATIONS>
10  12  8
11  14  8
12  15  8
14  15  8
9  10  8
9  11  8

$$$$
16876324
  -OEChem-06111304112D

 44 45  0     0  0  0  0  0  0999 V2000
    6.3301   -1.5000    0.0000 O   0  0  0  0  0  0  0  0  0  0  0  0
    4.5981   -1.5000    0.0000 N   0  0  0  0  0  0  0  0  0  0  0  0
    4.5981   -2.5000    0.0000 C   0  0  0  0  0  0  0  0  0  0  0  0
    3.7320   -3.0000    0.0000 C   0  0  0  0  0  0  0  0  0  0  0  0
    6.3301    0.5000    0.0000 C   0  0  0  0  0  0  0  0  0  0  0  0
    5.4641    0.0000    0.0000 C   0  0  0  0  0  0  0  0  0  0  0  0
    5.4641   -3.0000    0.0000 C   0  0  0  0  0  0  0  0  0  0  0  0
    2.8660   -2.5000    0.0000 C   0  0  0  0  0  0  0  0  0  0  0  0
    6.3301    1.5000    0.0000 C   0  0  0  0  0  0  0  0  0  0  0  0
    5.4641   -1.0000    0.0000 C   0  0  0  0  0  0  0  0  0  0  0  0
    3.7320   -4.0000    0.0000 C   0  0  0  0  0  0  0  0  0  0  0  0
    5.4641   -4.0000    0.0000 C   0  0  0  0  0  0  0  0  0  0  0  0
    4.5981   -4.5000    0.0000 C   0  0  0  0  0  0  0  0  0  0  0  0
    7.1962    2.0000    0.0000 C   0  0  0  0  0  0  0  0  0  0  0  0
    5.4641    2.0000    0.0000 C   0  0  0  0  0  0  0  0  0  0  0  0
    6.3301   -2.5000    0.0000 C   0  0  0  0  0  0  0  0  0  0  0  0
    2.0000   -3.0000    0.0000 C   0  0  0  0  0  0  0  0  0  0  0  0
    6.3301    3.5000    0.0000 C   0  0  0  0  0  0  0  0  0  0  0  0
    7.1962    3.0000    0.0000 C   0  0  0  0  0  0  0  0  0  0  0  0
    5.4641    3.0000    0.0000 C   0  0  0  0  0  0  0  0  0  0  0  0
    6.3301    4.5000    0.0000 C   0  0  0  0  0  0  0  0  0  0  0  0
    6.5422   -0.0826    0.0000 H   0  0  0  0  0  0  0  0  0  0  0  0
    6.9407    0.6077    0.0000 H   0  0  0  0  0  0  0  0  0  0  0  0
    5.2520    0.5826    0.0000 H   0  0  0  0  0  0  0  0  0  0  0  0
    4.8535   -0.1077    0.0000 H   0  0  0  0  0  0  0  0  0  0  0  0
    3.2646   -2.0250    0.0000 H   0  0  0  0  0  0  0  0  0  0  0  0
    2.4675   -2.0250    0.0000 H   0  0  0  0  0  0  0  0  0  0  0  0
    4.0611   -1.1900    0.0000 H   0  0  0  0  0  0  0  0  0  0  0  0
    3.1951   -4.3100    0.0000 H   0  0  0  0  0  0  0  0  0  0  0  0
    6.0010   -4.3100    0.0000 H   0  0  0  0  0  0  0  0  0  0  0  0
    4.5981   -5.1200    0.0000 H   0  0  0  0  0  0  0  0  0  0  0  0
    7.7331    1.6900    0.0000 H   0  0  0  0  0  0  0  0  0  0  0  0
    4.9272    1.6900    0.0000 H   0  0  0  0  0  0  0  0  0  0  0  0
    6.6401   -3.0369    0.0000 H   0  0  0  0  0  0  0  0  0  0  0  0
    6.8671   -2.1900    0.0000 H   0  0  0  0  0  0  0  0  0  0  0  0
    6.0201   -1.9631    0.0000 H   0  0  0  0  0  0  0  0  0  0  0  0
    1.6900   -2.4631    0.0000 H   0  0  0  0  0  0  0  0  0  0  0  0
    1.4631   -3.3100    0.0000 H   0  0  0  0  0  0  0  0  0  0  0  0
    2.3100   -3.5369    0.0000 H   0  0  0  0  0  0  0  0  0  0  0  0
    7.7331    3.3100    0.0000 H   0  0  0  0  0  0  0  0  0  0  0  0
    4.9272    3.3100    0.0000 H   0  0  0  0  0  0  0  0  0  0  0  0
    6.9501    4.5000    0.0000 H   0  0  0  0  0  0  0  0  0  0  0  0
    6.3301    5.1200    0.0000 H   0  0  0  0  0  0  0  0  0  0  0  0
    5.7101    4.5000    0.0000 H   0  0  0  0  0  0  0  0  0  0  0  0
  1 10  2  0  0  0  0
  2  3  1  0  0  0  0
  2 10  1  0  0  0  0
  2 28  1  0  0  0  0
  3  4  1  0  0  0  0
  3  7  2  0  0  0  0
  4  8  1  0  0  0  0
  4 11  2  0  0  0  0
  5  6  1  0  0  0  0
  5  9  1  0  0  0  0
  5 22  1  0  0  0  0
  5 23  1  0  0  0  0
  6 10  1  0  0  0  0
  6 24  1  0  0  0  0
  6 25  1  0  0  0  0
  7 12  1  0  0  0  0
  7 16  1  0  0  0  0
  8 17  1  0  0  0  0
  8 26  1  0  0  0  0
  8 27  1  0  0  0  0
  9 14  2  0  0  0  0
  9 15  1  0  0  0  0
 11 13  1  0  0  0  0
 11 29  1  0  0  0  0
 12 13  2  0  0  0  0
 12 30  1  0  0  0  0
 13 31  1  0  0  0  0
 14 19  1  0  0  0  0
 14 32  1  0  0  0  0
 15 20  2  0  0  0  0
 15 33  1  0  0  0  0
 16 34  1  0  0  0  0
 16 35  1  0  0  0  0
 16 36  1  0  0  0  0
 17 37  1  0  0  0  0
 17 38  1  0  0  0  0
 17 39  1  0  0  0  0
 18 19  2  0  0  0  0
 18 20  1  0  0  0  0
 18 21  1  0  0  0  0
 19 40  1  0  0  0  0
 20 41  1  0  0  0  0
 21 42  1  0  0  0  0
 21 43  1  0  0  0  0
 21 44  1  0  0  0  0
M  END
> <PUBCHEM_COMPOUND_CID>
16876324

> <PUBCHEM_COMPOUND_CANONICALIZED>
1

> <PUBCHEM_CACTVS_COMPLEXITY>
320

> <PUBCHEM_CACTVS_HBOND_ACCEPTOR>
1

> <PUBCHEM_CACTVS_HBOND_DONOR>
1

> <PUBCHEM_CACTVS_ROTATABLE_BOND>
5

> <PUBCHEM_CACTVS_SUBSKEYS>
AAADceB6IAAAAAAAAAAAAAAAAAAAAAAAAAAwYAAAAAAAAAABQAAAHgAQAAAADAiBmAAywILAAACIAiVSUACCAAAhAAAIiAEARIgIIDLAkZGEIAhglADIyAcYiMCOQAACAAACAACAAAQAAAQAAAAAAAAAAA==

> <PUBCHEM_IUPAC_OPENEYE_NAME>
N-(2-ethyl-6-methyl-phenyl)-3-(p-tolyl)propanamide

> <PUBCHEM_IUPAC_CAS_NAME>
N-(2-ethyl-6-methylphenyl)-3-(4-methylphenyl)propanamide

> <PUBCHEM_IUPAC_NAME>
N-(2-ethyl-6-methylphenyl)-3-(4-methylphenyl)propanamide

> <PUBCHEM_IUPAC_SYSTEMATIC_NAME>
N-(2-ethyl-6-methyl-phenyl)-3-(4-methylphenyl)propanamide

> <PUBCHEM_IUPAC_TRADITIONAL_NAME>
N-(2-ethyl-6-methyl-phenyl)-3-(p-tolyl)propionamide

> <PUBCHEM_IUPAC_INCHI>
InChI=1S/C19H23NO/c1-4-17-7-5-6-15(3)19(17)20-18(21)13-12-16-10-8-14(2)9-11-16/h5-11H,4,12-13H2,1-3H3,(H,20,21)

> <PUBCHEM_IUPAC_INCHIKEY>
ZLSRGJIUAZHVTK-UHFFFAOYSA-N

> <PUBCHEM_XLOGP3>
3.7

> <PUBCHEM_EXACT_MASS>
281.177964

> <PUBCHEM_MOLECULAR_FORMULA>
C19H23NO

> <PUBCHEM_MOLECULAR_WEIGHT>
281.39202

> <PUBCHEM_OPENEYE_CAN_SMILES>
CCC1=CC=CC(=C1NC(=O)CCC2=CC=C(C=C2)C)C

> <PUBCHEM_OPENEYE_ISO_SMILES>
CCC1=CC=CC(=C1NC(=O)CCC2=CC=C(C=C2)C)C

> <PUBCHEM_CACTVS_TPSA>
29.1

> <PUBCHEM_MONOISOTOPIC_WEIGHT>
281.177964

> <PUBCHEM_TOTAL_CHARGE>
0

> <PUBCHEM_HEAVY_ATOM_COUNT>
21

> <PUBCHEM_ATOM_DEF_STEREO_COUNT>
0

> <PUBCHEM_ATOM_UDEF_STEREO_COUNT>
0

> <PUBCHEM_BOND_DEF_STEREO_COUNT>
0

> <PUBCHEM_BOND_UDEF_STEREO_COUNT>
0

> <PUBCHEM_ISOTOPIC_ATOM_COUNT>
0

> <PUBCHEM_COMPONENT_COUNT>
1

> <PUBCHEM_CACTVS_TAUTO_COUNT>
3

> <PUBCHEM_COORDINATE_TYPE>
1
5
255

> <PUBCHEM_BONDANNOTATIONS>
11  13  8
12  13  8
14  19  8
15  20  8
18  19  8
18  20  8
3  4  8
3  7  8
4  11  8
7  12  8
9  14  8
9  15  8

$$$$
16878103
  -OEChem-06111304112D

 27 28  0     0  0  0  0  0  0999 V2000
    5.6103    2.3190    0.0000 O   0  0  0  0  0  0  0  0  0  0  0  0
    4.6783   -2.1421    0.0000 N   0  0  0  0  0  0  0  0  0  0  0  0
    7.2566    1.7809    0.0000 N   0  0  0  0  0  0  0  0  0  0  0  0
    3.7321   -0.8373    0.0000 C   0  0  0  0  0  0  0  0  0  0  0  0
    3.7321   -1.8373    0.0000 C   0  0  0  0  0  0  0  0  0  0  0  0
    4.6783   -0.5326    0.0000 C   0  0  0  0  0  0  0  0  0  0  0  0
    5.2619   -1.3373    0.0000 C   0  0  0  0  0  0  0  0  0  0  0  0
    2.8660   -0.3373    0.0000 C   0  0  0  0  0  0  0  0  0  0  0  0
    2.8660   -2.3373    0.0000 C   0  0  0  0  0  0  0  0  0  0  0  0
    4.9889    0.4179    0.0000 C   0  0  0  0  0  0  0  0  0  0  0  0
    2.0000   -0.8373    0.0000 C   0  0  0  0  0  0  0  0  0  0  0  0
    2.0000   -1.8373    0.0000 C   0  0  0  0  0  0  0  0  0  0  0  0
    5.9674    0.6241    0.0000 C   0  0  0  0  0  0  0  0  0  0  0  0
    6.2781    1.5747    0.0000 C   0  0  0  0  0  0  0  0  0  0  0  0
    7.5673    2.7314    0.0000 C   0  0  0  0  0  0  0  0  0  0  0  0
    4.8709   -2.7314    0.0000 H   0  0  0  0  0  0  0  0  0  0  0  0
    5.8819   -1.3373    0.0000 H   0  0  0  0  0  0  0  0  0  0  0  0
    2.8660    0.2827    0.0000 H   0  0  0  0  0  0  0  0  0  0  0  0
    2.8660   -2.9573    0.0000 H   0  0  0  0  0  0  0  0  0  0  0  0
    4.5749    0.8794    0.0000 H   0  0  0  0  0  0  0  0  0  0  0  0
    1.4631   -0.5273    0.0000 H   0  0  0  0  0  0  0  0  0  0  0  0
    1.4631   -2.1473    0.0000 H   0  0  0  0  0  0  0  0  0  0  0  0
    6.3815    0.1627    0.0000 H   0  0  0  0  0  0  0  0  0  0  0  0
    7.6707    1.3194    0.0000 H   0  0  0  0  0  0  0  0  0  0  0  0
    7.7599    3.3207    0.0000 H   0  0  0  0  0  0  0  0  0  0  0  0
    6.9779    2.9240    0.0000 H   0  0  0  0  0  0  0  0  0  0  0  0
    8.1566    2.5388    0.0000 H   0  0  0  0  0  0  0  0  0  0  0  0
  1 14  2  0  0  0  0
  2  5  1  0  0  0  0
  2  7  1  0  0  0  0
  2 16  1  0  0  0  0
  3 14  1  0  0  0  0
  3 15  1  0  0  0  0
  3 24  1  0  0  0  0
  4  5  1  0  0  0  0
  4  6  1  0  0  0  0
  4  8  2  0  0  0  0
  5  9  2  0  0  0  0
  6  7  2  0  0  0  0
  6 10  1  0  0  0  0
  7 17  1  0  0  0  0
  8 11  1  0  0  0  0
  8 18  1  0  0  0  0
  9 12  1  0  0  0  0
  9 19  1  0  0  0  0
 10 13  2  0  0  0  0
 10 20  1  0  0  0  0
 11 12  2  0  0  0  0
 11 21  1  0  0  0  0
 12 22  1  0  0  0  0
 13 14  1  0  0  0  0
 13 23  1  0  0  0  0
 15 25  1  0  0  0  0
 15 26  1  0  0  0  0
 15 27  1  0  0  0  0
M  END
> <PUBCHEM_COMPOUND_CID>
16878103

> <PUBCHEM_COMPOUND_CANONICALIZED>
1

> <PUBCHEM_CACTVS_COMPLEXITY>
262

> <PUBCHEM_CACTVS_HBOND_ACCEPTOR>
1

> <PUBCHEM_CACTVS_HBOND_DONOR>
2

> <PUBCHEM_CACTVS_ROTATABLE_BOND>
2

> <PUBCHEM_CACTVS_SUBSKEYS>
AAADccBzIAAAAAAAAAAAAAAAAAAAAWAAAAAwAAAAAAAAAFgB8AAAHgAQAAAADAjBngQ+wPLJkACoAzV3VACCgCAxAiAI2aA4ZNgIIOLAkZGEIAhgkgDIyYcQgMAOgAAAAAACAAAAAAAAAAQAAAAAAAAAAA==

> <PUBCHEM_IUPAC_OPENEYE_NAME>
(E)-3-(1H-indol-3-yl)-N-methyl-prop-2-enamide

> <PUBCHEM_IUPAC_CAS_NAME>
(E)-3-(1H-indol-3-yl)-N-methyl-2-propenamide

> <PUBCHEM_IUPAC_NAME>
(E)-3-(1H-indol-3-yl)-N-methylprop-2-enamide

> <PUBCHEM_IUPAC_SYSTEMATIC_NAME>
(E)-3-(1H-indol-3-yl)-N-methyl-prop-2-enamide

> <PUBCHEM_IUPAC_TRADITIONAL_NAME>
(E)-3-(1H-indol-3-yl)-N-methyl-acrylamide

> <PUBCHEM_IUPAC_INCHI>
InChI=1S/C12H12N2O/c1-13-12(15)7-6-9-8-14-11-5-3-2-4-10(9)11/h2-8,14H,1H3,(H,13,15)/b7-6+

> <PUBCHEM_IUPAC_INCHIKEY>
DJUIGGHTBIVOQG-VOTSOKGWSA-N

> <PUBCHEM_XLOGP3>
1.9

> <PUBCHEM_EXACT_MASS>
200.094963

> <PUBCHEM_MOLECULAR_FORMULA>
C12H12N2O

> <PUBCHEM_MOLECULAR_WEIGHT>
200.23648

> <PUBCHEM_OPENEYE_CAN_SMILES>
CNC(=O)C=CC1=CNC2=CC=CC=C21

> <PUBCHEM_OPENEYE_ISO_SMILES>
CNC(=O)/C=C/C1=CNC2=CC=CC=C21

> <PUBCHEM_CACTVS_TPSA>
44.9

> <PUBCHEM_MONOISOTOPIC_WEIGHT>
200.094963

> <PUBCHEM_TOTAL_CHARGE>
0

> <PUBCHEM_HEAVY_ATOM_COUNT>
15

> <PUBCHEM_ATOM_DEF_STEREO_COUNT>
0

> <PUBCHEM_ATOM_UDEF_STEREO_COUNT>
0

> <PUBCHEM_BOND_DEF_STEREO_COUNT>
1

> <PUBCHEM_BOND_UDEF_STEREO_COUNT>
0

> <PUBCHEM_ISOTOPIC_ATOM_COUNT>
0

> <PUBCHEM_COMPONENT_COUNT>
1

> <PUBCHEM_CACTVS_TAUTO_COUNT>
5

> <PUBCHEM_COORDINATE_TYPE>
1
5
255

> <PUBCHEM_BONDANNOTATIONS>
11  12  8
2  5  8
2  7  8
4  5  8
4  6  8
4  8  8
5  9  8
6  7  8
8  11  8
9  12  8

$$$$
