41383853
  -OEChem-11301217492D

 40 41  0     0  0  0  0  0  0999 V2000
    2.8660    0.2327    0.0000 O   0  0  0  0  0  0  0  0  0  0  0  0
    2.8660   -1.7673    0.0000 N   0  3  0  0  0  0  0  0  0  0  0  0
    4.5981    0.2327    0.0000 N   0  0  0  0  0  0  0  0  0  0  0  0
    3.7320   -1.2673    0.0000 C   0  0  0  0  0  0  0  0  0  0  0  0
    2.0000   -2.2673    0.0000 C   0  0  0  0  0  0  0  0  0  0  0  0
    3.3660   -2.6334    0.0000 C   0  0  0  0  0  0  0  0  0  0  0  0
    3.7320   -0.2673    0.0000 C   0  0  0  0  0  0  0  0  0  0  0  0
    2.0000   -3.2673    0.0000 C   0  0  0  0  0  0  0  0  0  0  0  0
    4.3660   -2.6334    0.0000 C   0  0  0  0  0  0  0  0  0  0  0  0
    4.5981    1.2327    0.0000 C   0  0  0  0  0  0  0  0  0  0  0  0
    5.4641    1.7327    0.0000 C   0  0  0  0  0  0  0  0  0  0  0  0
    5.4641    2.7327    0.0000 C   0  0  0  0  0  0  0  0  0  0  0  0
    3.7320    1.7327    0.0000 C   0  0  0  0  0  0  0  0  0  0  0  0
    6.3580    1.1980    0.0000 C   0  0  0  0  0  0  0  0  0  0  0  0
    4.5981    3.2327    0.0000 C   0  0  0  0  0  0  0  0  0  0  0  0
    3.7320    2.7327    0.0000 C   0  0  0  0  0  0  0  0  0  0  0  0
    6.3580    3.2673    0.0000 C   0  0  0  0  0  0  0  0  0  0  0  0
    7.2641    1.7118    0.0000 C   0  0  0  0  0  0  0  0  0  0  0  0
    7.2641    2.7535    0.0000 C   0  0  0  0  0  0  0  0  0  0  0  0
    2.5560   -1.2304    0.0000 H   0  0  0  0  0  0  0  0  0  0  0  0
    3.9441   -1.8499    0.0000 H   0  0  0  0  0  0  0  0  0  0  0  0
    4.3426   -1.1597    0.0000 H   0  0  0  0  0  0  0  0  0  0  0  0
    1.7880   -1.6847    0.0000 H   0  0  0  0  0  0  0  0  0  0  0  0
    1.3894   -2.3750    0.0000 H   0  0  0  0  0  0  0  0  0  0  0  0
    2.7834   -2.8454    0.0000 H   0  0  0  0  0  0  0  0  0  0  0  0
    3.4737   -3.2439    0.0000 H   0  0  0  0  0  0  0  0  0  0  0  0
    4.3660   -3.2534    0.0000 H   0  0  0  0  0  0  0  0  0  0  0  0
    1.3800   -3.2673    0.0000 H   0  0  0  0  0  0  0  0  0  0  0  0
    2.0000   -3.8873    0.0000 H   0  0  0  0  0  0  0  0  0  0  0  0
    2.6200   -3.2673    0.0000 H   0  0  0  0  0  0  0  0  0  0  0  0
    4.9860   -2.6334    0.0000 H   0  0  0  0  0  0  0  0  0  0  0  0
    4.3660   -2.0134    0.0000 H   0  0  0  0  0  0  0  0  0  0  0  0
    5.1350   -0.0773    0.0000 H   0  0  0  0  0  0  0  0  0  0  0  0
    3.1951    1.4227    0.0000 H   0  0  0  0  0  0  0  0  0  0  0  0
    6.3509    0.5780    0.0000 H   0  0  0  0  0  0  0  0  0  0  0  0
    4.5981    3.8527    0.0000 H   0  0  0  0  0  0  0  0  0  0  0  0
    3.1951    3.0427    0.0000 H   0  0  0  0  0  0  0  0  0  0  0  0
    6.3509    3.8873    0.0000 H   0  0  0  0  0  0  0  0  0  0  0  0
    7.7998    1.3998    0.0000 H   0  0  0  0  0  0  0  0  0  0  0  0
    7.7998    3.0656    0.0000 H   0  0  0  0  0  0  0  0  0  0  0  0
  1  7  2  0  0  0  0
  2  4  1  0  0  0  0
  2  5  1  0  0  0  0
  2  6  1  0  0  0  0
  2 20  1  0  0  0  0
  3  7  1  0  0  0  0
  3 10  1  0  0  0  0
  3 33  1  0  0  0  0
  4  7  1  0  0  0  0
  4 21  1  0  0  0  0
  4 22  1  0  0  0  0
  5  8  1  0  0  0  0
  5 23  1  0  0  0  0
  5 24  1  0  0  0  0
  6  9  1  0  0  0  0
  6 25  1  0  0  0  0
  6 26  1  0  0  0  0
  8 28  1  0  0  0  0
  8 29  1  0  0  0  0
  8 30  1  0  0  0  0
  9 27  1  0  0  0  0
  9 31  1  0  0  0  0
  9 32  1  0  0  0  0
 10 11  1  0  0  0  0
 10 13  2  0  0  0  0
 11 12  1  0  0  0  0
 11 14  2  0  0  0  0
 12 15  1  0  0  0  0
 12 17  2  0  0  0  0
 13 16  1  0  0  0  0
 13 34  1  0  0  0  0
 14 18  1  0  0  0  0
 14 35  1  0  0  0  0
 15 16  2  0  0  0  0
 15 36  1  0  0  0  0
 16 37  1  0  0  0  0
 17 19  1  0  0  0  0
 17 38  1  0  0  0  0
 18 19  2  0  0  0  0
 18 39  1  0  0  0  0
 19 40  1  0  0  0  0
M  CHG  1   2   1
M  END
> <PUBCHEM_COMPOUND_CID>
41383853

> <PUBCHEM_COMPOUND_CANONICALIZED>
1

> <PUBCHEM_CACTVS_COMPLEXITY>
289

> <PUBCHEM_CACTVS_HBOND_ACCEPTOR>
1

> <PUBCHEM_CACTVS_HBOND_DONOR>
2

> <PUBCHEM_CACTVS_ROTATABLE_BOND>
5

> <PUBCHEM_CACTVS_SUBSKEYS>
AAADceB7IAAAAAAAAAAAAAAAAAAAAAAAAAAwYAAAAAAAAADBUAAAHgAQAAAADAjBmAQywMPAAACIAiVSUACCAAAhAgAIiICIZIgIYCLAkbGUIAhglADIyAcQgIAOgAAAQAASAAAAAACAACQAAAAAAAAAAA==

> <PUBCHEM_IUPAC_OPENEYE_NAME>
diethyl-[2-(1-naphthylamino)-2-oxo-ethyl]ammonium

> <PUBCHEM_IUPAC_CAS_NAME>
diethyl-[2-(1-naphthalenylamino)-2-oxoethyl]ammonium

> <PUBCHEM_IUPAC_NAME>
diethyl-[2-(naphthalen-1-ylamino)-2-oxoethyl]azanium

> <PUBCHEM_IUPAC_SYSTEMATIC_NAME>
diethyl-[2-(naphthalen-1-ylamino)-2-oxidanylidene-ethyl]azanium

> <PUBCHEM_IUPAC_TRADITIONAL_NAME>
diethyl-[2-keto-2-(1-naphthylamino)ethyl]ammonium

> <PUBCHEM_IUPAC_INCHI>
InChI=1S/C16H20N2O/c1-3-18(4-2)12-16(19)17-15-11-7-9-13-8-5-6-10-14(13)15/h5-11H,3-4,12H2,1-2H3,(H,17,19)/p+1

> <PUBCHEM_IUPAC_INCHIKEY>
DHPIEQRATJYNJL-UHFFFAOYSA-O

> <PUBCHEM_XLOGP3>
2.4

> <PUBCHEM_EXACT_MASS>
257.165388

> <PUBCHEM_MOLECULAR_FORMULA>
C16H21N2O+

> <PUBCHEM_MOLECULAR_WEIGHT>
257.35074

> <PUBCHEM_OPENEYE_CAN_SMILES>
CC[NH+](CC)CC(=O)NC1=CC=CC2=CC=CC=C21

> <PUBCHEM_OPENEYE_ISO_SMILES>
CC[NH+](CC)CC(=O)NC1=CC=CC2=CC=CC=C21

> <PUBCHEM_CACTVS_TPSA>
33.5

> <PUBCHEM_MONOISOTOPIC_WEIGHT>
257.165388

> <PUBCHEM_TOTAL_CHARGE>
1

> <PUBCHEM_HEAVY_ATOM_COUNT>
19

> <PUBCHEM_ATOM_DEF_STEREO_COUNT>
0

> <PUBCHEM_ATOM_UDEF_STEREO_COUNT>
0

> <PUBCHEM_BOND_DEF_STEREO_COUNT>
0

> <PUBCHEM_BOND_UDEF_STEREO_COUNT>
0

> <PUBCHEM_ISOTOPIC_ATOM_COUNT>
0

> <PUBCHEM_COMPONENT_COUNT>
1

> <PUBCHEM_CACTVS_TAUTO_COUNT>
3

> <PUBCHEM_COORDINATE_TYPE>
1
5
255

> <PUBCHEM_BONDANNOTATIONS>
10  11  8
10  13  8
11  12  8
11  14  8
12  15  8
12  17  8
13  16  8
14  18  8
15  16  8
17  19  8
18  19  8

$$$$
41383895
  -OEChem-11301217492D

 37 39  0     0  0  0  0  0  0999 V2000
    3.7134   -2.7592    0.0000 Br  0  0  0  0  0  0  0  0  0  0  0  0
    2.0000    2.6164    0.0000 O   0  0  0  0  0  0  0  0  0  0  0  0
    5.5718    1.1316    0.0000 N   0  3  0  0  0  0  0  0  0  0  0  0
    2.6924    1.1316    0.0000 N   0  0  0  0  0  0  0  0  0  0  0  0
    4.6321    2.7592    0.0000 C   0  0  0  0  0  0  0  0  0  0  0  0
    5.3981    2.1164    0.0000 C   0  0  0  0  0  0  0  0  0  0  0  0
    5.0718    0.2656    0.0000 C   0  0  0  0  0  0  0  0  0  0  0  0
    3.6321    2.7592    0.0000 C   0  0  0  0  0  0  0  0  0  0  0  0
    4.1321   -0.0765    0.0000 C   0  0  0  0  0  0  0  0  0  0  0  0
    3.1924    0.2656    0.0000 C   0  0  0  0  0  0  0  0  0  0  0  0
    5.7146   -0.5005    0.0000 C   0  0  0  0  0  0  0  0  0  0  0  0
    2.8660    2.1164    0.0000 C   0  0  0  0  0  0  0  0  0  0  0  0
    4.3287   -1.0994    0.0000 C   0  0  0  0  0  0  0  0  0  0  0  0
    2.3842   -0.3916    0.0000 C   0  0  0  0  0  0  0  0  0  0  0  0
    6.6994   -0.3268    0.0000 C   0  0  0  0  0  0  0  0  0  0  0  0
    5.3725   -1.4402    0.0000 C   0  0  0  0  0  0  0  0  0  0  0  0
    3.5360   -1.7750    0.0000 C   0  0  0  0  0  0  0  0  0  0  0  0
    2.5572   -1.4188    0.0000 C   0  0  0  0  0  0  0  0  0  0  0  0
    7.3422   -1.0929    0.0000 C   0  0  0  0  0  0  0  0  0  0  0  0
    6.0153   -2.2062    0.0000 C   0  0  0  0  0  0  0  0  0  0  0  0
    7.0001   -2.0326    0.0000 C   0  0  0  0  0  0  0  0  0  0  0  0
    5.1501    3.0999    0.0000 H   0  0  0  0  0  0  0  0  0  0  0  0
    4.4542    3.3531    0.0000 H   0  0  0  0  0  0  0  0  0  0  0  0
    6.0139    2.0444    0.0000 H   0  0  0  0  0  0  0  0  0  0  0  0
    5.6437    2.6857    0.0000 H   0  0  0  0  0  0  0  0  0  0  0  0
    3.8099    3.3531    0.0000 H   0  0  0  0  0  0  0  0  0  0  0  0
    3.1141    3.0999    0.0000 H   0  0  0  0  0  0  0  0  0  0  0  0
    6.1823    1.0239    0.0000 H   0  0  0  0  0  0  0  0  0  0  0  0
    2.0818    1.0239    0.0000 H   0  0  0  0  0  0  0  0  0  0  0  0
    4.9138   -1.3047    0.0000 H   0  0  0  0  0  0  0  0  0  0  0  0
    1.8041   -0.1728    0.0000 H   0  0  0  0  0  0  0  0  0  0  0  0
    6.9114    0.2558    0.0000 H   0  0  0  0  0  0  0  0  0  0  0  0
    4.7620   -1.5478    0.0000 H   0  0  0  0  0  0  0  0  0  0  0  0
    2.0807   -1.8155    0.0000 H   0  0  0  0  0  0  0  0  0  0  0  0
    7.9527   -0.9852    0.0000 H   0  0  0  0  0  0  0  0  0  0  0  0
    5.8033   -2.7888    0.0000 H   0  0  0  0  0  0  0  0  0  0  0  0
    7.3986   -2.5075    0.0000 H   0  0  0  0  0  0  0  0  0  0  0  0
  1 17  1  0  0  0  0
  2 12  2  0  0  0  0
  3  6  1  0  0  0  0
  3  7  2  0  0  0  0
  3 28  1  0  0  0  0
  4 10  1  0  0  0  0
  4 12  1  0  0  0  0
  4 29  1  0  0  0  0
  5  6  1  0  0  0  0
  5  8  1  0  0  0  0
  5 22  1  0  0  0  0
  5 23  1  0  0  0  0
  6 24  1  0  0  0  0
  6 25  1  0  0  0  0
  7  9  1  0  0  0  0
  7 11  1  0  0  0  0
  8 12  1  0  0  0  0
  8 26  1  0  0  0  0
  8 27  1  0  0  0  0
  9 10  2  0  0  0  0
  9 13  1  0  0  0  0
 10 14  1  0  0  0  0
 11 15  2  0  0  0  0
 11 16  1  0  0  0  0
 13 17  2  0  0  0  0
 13 30  1  0  0  0  0
 14 18  2  0  0  0  0
 14 31  1  0  0  0  0
 15 19  1  0  0  0  0
 15 32  1  0  0  0  0
 16 20  2  0  0  0  0
 16 33  1  0  0  0  0
 17 18  1  0  0  0  0
 18 34  1  0  0  0  0
 19 21  2  0  0  0  0
 19 35  1  0  0  0  0
 20 21  1  0  0  0  0
 20 36  1  0  0  0  0
 21 37  1  0  0  0  0
M  CHG  1   3   1
M  END
> <PUBCHEM_COMPOUND_CID>
41383895

> <PUBCHEM_COMPOUND_CANONICALIZED>
1

> <PUBCHEM_CACTVS_COMPLEXITY>
404

> <PUBCHEM_CACTVS_HBOND_ACCEPTOR>
1

> <PUBCHEM_CACTVS_HBOND_DONOR>
2

> <PUBCHEM_CACTVS_ROTATABLE_BOND>
1

> <PUBCHEM_CACTVS_SUBSKEYS>
AAADceB7IAAAEAAAAAAAAAAAAAAAAAAAAAAwYAAAAAAAAEABQAAAHgBQAAABrAjBmAQwwILAAACoAyVyVACCAAAhAgQIiIEgZLgIILLAkZGEIAhglADIyhcUgMAOAAAgEAACAAAAAEAgAAQAAAAAAAAAAA==

> <PUBCHEM_IUPAC_OPENEYE_NAME>
9-bromo-7-phenyl-1,3,4,5-tetrahydro-1,6-benzodiazonin-6-ium-2-one

> <PUBCHEM_IUPAC_CAS_NAME>
9-bromo-7-phenyl-1,3,4,5-tetrahydro-1,6-benzodiazonin-6-ium-2-one

> <PUBCHEM_IUPAC_NAME>
9-bromo-7-phenyl-1,3,4,5-tetrahydro-1,6-benzodiazonin-6-ium-2-one

> <PUBCHEM_IUPAC_SYSTEMATIC_NAME>
9-bromanyl-7-phenyl-1,3,4,5-tetrahydro-1,6-benzodiazonin-6-ium-2-one

> <PUBCHEM_IUPAC_TRADITIONAL_NAME>
9-bromo-7-phenyl-1,3,4,5-tetrahydro-1,6-benzodiazonin-6-ium-2-one

> <PUBCHEM_IUPAC_INCHI>
InChI=1S/C17H15BrN2O/c18-13-8-9-15-14(11-13)17(12-5-2-1-3-6-12)19-10-4-7-16(21)20-15/h1-3,5-6,8-9,11H,4,7,10H2,(H,20,21)/p+1

> <PUBCHEM_IUPAC_INCHIKEY>
NBAJSVVMPUMOPL-UHFFFAOYSA-O

> <PUBCHEM_XLOGP3>
3.2

> <PUBCHEM_EXACT_MASS>
343.0446

> <PUBCHEM_MOLECULAR_FORMULA>
C17H16BrN2O+

> <PUBCHEM_MOLECULAR_WEIGHT>
344.22574

> <PUBCHEM_OPENEYE_CAN_SMILES>
C1CC(=O)NC2=C(C=C(C=C2)Br)C(=[NH+]C1)C3=CC=CC=C3

> <PUBCHEM_OPENEYE_ISO_SMILES>
C1CC(=O)NC2=C(C=C(C=C2)Br)C(=[NH+]C1)C3=CC=CC=C3

> <PUBCHEM_CACTVS_TPSA>
43.1

> <PUBCHEM_MONOISOTOPIC_WEIGHT>
343.0446

> <PUBCHEM_TOTAL_CHARGE>
1

> <PUBCHEM_HEAVY_ATOM_COUNT>
21

> <PUBCHEM_ATOM_DEF_STEREO_COUNT>
0

> <PUBCHEM_ATOM_UDEF_STEREO_COUNT>
0

> <PUBCHEM_BOND_DEF_STEREO_COUNT>
0

> <PUBCHEM_BOND_UDEF_STEREO_COUNT>
0

> <PUBCHEM_ISOTOPIC_ATOM_COUNT>
0

> <PUBCHEM_COMPONENT_COUNT>
1

> <PUBCHEM_CACTVS_TAUTO_COUNT>
7

> <PUBCHEM_COORDINATE_TYPE>
1
5
255

> <PUBCHEM_BONDANNOTATIONS>
10  14  8
11  15  8
11  16  8
13  17  8
14  18  8
15  19  8
16  20  8
17  18  8
19  21  8
20  21  8
9  10  8
9  13  8

$$$$
