43470718
  -OEChem-11301217522D

 32 33  0     1  0  0  0  0  0999 V2000
    2.0000   -3.6830    0.0000 Cl  0  0  0  0  0  0  0  0  0  0  0  0
    2.0000    1.3170    0.0000 O   0  0  0  0  0  0  0  0  0  0  0  0
    3.7320    1.3170    0.0000 N   0  0  0  0  0  0  0  0  0  0  0  0
    4.5981    2.8170    0.0000 C   0  0  0  0  0  0  0  0  0  0  0  0
    5.5981    2.8170    0.0000 C   0  0  0  0  0  0  0  0  0  0  0  0
    5.0981    3.6830    0.0000 C   0  0  0  0  0  0  0  0  0  0  0  0
    3.7320    2.3170    0.0000 C   0  0  3  0  0  0  0  0  0  0  0  0
    2.8660    2.8170    0.0000 C   0  0  0  0  0  0  0  0  0  0  0  0
    2.8660    0.8170    0.0000 C   0  0  0  0  0  0  0  0  0  0  0  0
    2.8660   -0.1830    0.0000 C   0  0  0  0  0  0  0  0  0  0  0  0
    2.0000   -0.6830    0.0000 C   0  0  0  0  0  0  0  0  0  0  0  0
    3.7320   -0.6830    0.0000 C   0  0  0  0  0  0  0  0  0  0  0  0
    2.8660   -2.1830    0.0000 C   0  0  0  0  0  0  0  0  0  0  0  0
    2.0000   -1.6830    0.0000 C   0  0  0  0  0  0  0  0  0  0  0  0
    3.7320   -1.6830    0.0000 C   0  0  0  0  0  0  0  0  0  0  0  0
    2.8660   -3.1830    0.0000 C   0  0  0  0  0  0  0  0  0  0  0  0
    4.7585    2.2181    0.0000 H   0  0  0  0  0  0  0  0  0  0  0  0
    5.7057    2.2064    0.0000 H   0  0  0  0  0  0  0  0  0  0  0  0
    6.1807    3.0290    0.0000 H   0  0  0  0  0  0  0  0  0  0  0  0
    5.5730    4.0815    0.0000 H   0  0  0  0  0  0  0  0  0  0  0  0
    4.6231    4.0815    0.0000 H   0  0  0  0  0  0  0  0  0  0  0  0
    4.2690    2.0070    0.0000 H   0  0  0  0  0  0  0  0  0  0  0  0
    3.1760    3.3539    0.0000 H   0  0  0  0  0  0  0  0  0  0  0  0
    2.3291    3.1270    0.0000 H   0  0  0  0  0  0  0  0  0  0  0  0
    2.5560    2.2800    0.0000 H   0  0  0  0  0  0  0  0  0  0  0  0
    4.2690    1.0070    0.0000 H   0  0  0  0  0  0  0  0  0  0  0  0
    1.4631   -0.3730    0.0000 H   0  0  0  0  0  0  0  0  0  0  0  0
    4.2690   -0.3730    0.0000 H   0  0  0  0  0  0  0  0  0  0  0  0
    1.4631   -1.9930    0.0000 H   0  0  0  0  0  0  0  0  0  0  0  0
    4.2690   -1.9930    0.0000 H   0  0  0  0  0  0  0  0  0  0  0  0
    3.0781   -3.7656    0.0000 H   0  0  0  0  0  0  0  0  0  0  0  0
    3.4766   -3.0753    0.0000 H   0  0  0  0  0  0  0  0  0  0  0  0
  1 16  1  0  0  0  0
  2  9  2  0  0  0  0
  3  7  1  0  0  0  0
  3  9  1  0  0  0  0
  3 26  1  0  0  0  0
  4  5  1  0  0  0  0
  4  6  1  0  0  0  0
  4  7  1  0  0  0  0
  4 17  1  0  0  0  0
  5  6  1  0  0  0  0
  5 18  1  0  0  0  0
  5 19  1  0  0  0  0
  6 20  1  0  0  0  0
  6 21  1  0  0  0  0
  7  8  1  0  0  0  0
  7 22  1  0  0  0  0
  8 23  1  0  0  0  0
  8 24  1  0  0  0  0
  8 25  1  0  0  0  0
  9 10  1  0  0  0  0
 10 11  2  0  0  0  0
 10 12  1  0  0  0  0
 11 14  1  0  0  0  0
 11 27  1  0  0  0  0
 12 15  2  0  0  0  0
 12 28  1  0  0  0  0
 13 14  2  0  0  0  0
 13 15  1  0  0  0  0
 13 16  1  0  0  0  0
 14 29  1  0  0  0  0
 15 30  1  0  0  0  0
 16 31  1  0  0  0  0
 16 32  1  0  0  0  0
M  END
> <PUBCHEM_COMPOUND_CID>
43470718

> <PUBCHEM_COMPOUND_CANONICALIZED>
1

> <PUBCHEM_CACTVS_COMPLEXITY>
244

> <PUBCHEM_CACTVS_HBOND_ACCEPTOR>
1

> <PUBCHEM_CACTVS_HBOND_DONOR>
1

> <PUBCHEM_CACTVS_ROTATABLE_BOND>
4

> <PUBCHEM_CACTVS_SUBSKEYS>
AAADceByIAAEAAAAAAAAAAAAGAAAAAAAAAAwAAAAAAAAAAABAAAAHgIQAAAADSvBmEQyAILAAACIAiFSEACCAAAkAAAIiIEIBsgIIDKBlRGEIQhglgCIiYcYiACOQAAAAAAAAACAAAAAAAAAAAAAAAAAAA==

> <PUBCHEM_IUPAC_OPENEYE_NAME>
4-(chloromethyl)-N-(1-cyclopropylethyl)benzamide

> <PUBCHEM_IUPAC_CAS_NAME>
4-(chloromethyl)-N-(1-cyclopropylethyl)benzamide

> <PUBCHEM_IUPAC_NAME>
4-(chloromethyl)-N-(1-cyclopropylethyl)benzamide

> <PUBCHEM_IUPAC_SYSTEMATIC_NAME>
4-(chloromethyl)-N-(1-cyclopropylethyl)benzamide

> <PUBCHEM_IUPAC_TRADITIONAL_NAME>
4-(chloromethyl)-N-(1-cyclopropylethyl)benzamide

> <PUBCHEM_IUPAC_INCHI>
InChI=1S/C13H16ClNO/c1-9(11-6-7-11)15-13(16)12-4-2-10(8-14)3-5-12/h2-5,9,11H,6-8H2,1H3,(H,15,16)

> <PUBCHEM_IUPAC_INCHIKEY>
GYVDEDPSBBYVCG-UHFFFAOYSA-N

> <PUBCHEM_XLOGP3>
1.7

> <PUBCHEM_EXACT_MASS>
237.092042

> <PUBCHEM_MOLECULAR_FORMULA>
C13H16ClNO

> <PUBCHEM_MOLECULAR_WEIGHT>
237.72524

> <PUBCHEM_OPENEYE_CAN_SMILES>
CC(C1CC1)NC(=O)C2=CC=C(C=C2)CCl

> <PUBCHEM_OPENEYE_ISO_SMILES>
CC(C1CC1)NC(=O)C2=CC=C(C=C2)CCl

> <PUBCHEM_CACTVS_TPSA>
29.1

> <PUBCHEM_MONOISOTOPIC_WEIGHT>
237.092042

> <PUBCHEM_TOTAL_CHARGE>
0

> <PUBCHEM_HEAVY_ATOM_COUNT>
16

> <PUBCHEM_ATOM_DEF_STEREO_COUNT>
0

> <PUBCHEM_ATOM_UDEF_STEREO_COUNT>
1

> <PUBCHEM_BOND_DEF_STEREO_COUNT>
0

> <PUBCHEM_BOND_UDEF_STEREO_COUNT>
0

> <PUBCHEM_ISOTOPIC_ATOM_COUNT>
0

> <PUBCHEM_COMPONENT_COUNT>
1

> <PUBCHEM_CACTVS_TAUTO_COUNT>
2

> <PUBCHEM_COORDINATE_TYPE>
1
5
255

> <PUBCHEM_BONDANNOTATIONS>
10  11  8
10  12  8
11  14  8
12  15  8
13  14  8
13  15  8
7  8  3

$$$$
