33386437
  -OEChem-10191221412D

 29 30  0     0  0  0  0  0  0999 V2000
    2.0000   -2.9830    0.0000 I   0  0  0  0  0  0  0  0  0  0  0  0
    2.8660    0.5170    0.0000 O   0  0  0  0  0  0  0  0  0  0  0  0
    4.5981    0.5170    0.0000 N   0  0  0  0  0  0  0  0  0  0  0  0
    5.4641    2.0170    0.0000 C   0  0  0  0  0  0  0  0  0  0  0  0
    6.4300    1.7582    0.0000 C   0  0  0  0  0  0  0  0  0  0  0  0
    5.7229    2.9830    0.0000 C   0  0  0  0  0  0  0  0  0  0  0  0
    6.6889    2.7241    0.0000 C   0  0  0  0  0  0  0  0  0  0  0  0
    4.5981    1.5170    0.0000 C   0  0  0  0  0  0  0  0  0  0  0  0
    3.7321    0.0170    0.0000 C   0  0  0  0  0  0  0  0  0  0  0  0
    3.7321   -0.9830    0.0000 C   0  0  0  0  0  0  0  0  0  0  0  0
    2.8660   -1.4830    0.0000 C   0  0  0  0  0  0  0  0  0  0  0  0
    4.5981   -1.4830    0.0000 C   0  0  0  0  0  0  0  0  0  0  0  0
    2.8660   -2.4830    0.0000 C   0  0  0  0  0  0  0  0  0  0  0  0
    4.5981   -2.4830    0.0000 C   0  0  0  0  0  0  0  0  0  0  0  0
    3.7321   -2.9830    0.0000 C   0  0  0  0  0  0  0  0  0  0  0  0
    4.9722    2.3945    0.0000 H   0  0  0  0  0  0  0  0  0  0  0  0
    6.2696    1.1593    0.0000 H   0  0  0  0  0  0  0  0  0  0  0  0
    7.0289    1.5978    0.0000 H   0  0  0  0  0  0  0  0  0  0  0  0
    5.8834    3.5818    0.0000 H   0  0  0  0  0  0  0  0  0  0  0  0
    5.1241    3.1434    0.0000 H   0  0  0  0  0  0  0  0  0  0  0  0
    7.2877    2.5637    0.0000 H   0  0  0  0  0  0  0  0  0  0  0  0
    6.8493    3.3230    0.0000 H   0  0  0  0  0  0  0  0  0  0  0  0
    4.3860    2.0997    0.0000 H   0  0  0  0  0  0  0  0  0  0  0  0
    3.9875    1.4094    0.0000 H   0  0  0  0  0  0  0  0  0  0  0  0
    5.1350    0.2070    0.0000 H   0  0  0  0  0  0  0  0  0  0  0  0
    2.3291   -1.1730    0.0000 H   0  0  0  0  0  0  0  0  0  0  0  0
    5.1350   -1.1730    0.0000 H   0  0  0  0  0  0  0  0  0  0  0  0
    5.1350   -2.7930    0.0000 H   0  0  0  0  0  0  0  0  0  0  0  0
    3.7321   -3.6030    0.0000 H   0  0  0  0  0  0  0  0  0  0  0  0
  1 13  1  0  0  0  0
  2  9  2  0  0  0  0
  3  8  1  0  0  0  0
  3  9  1  0  0  0  0
  3 25  1  0  0  0  0
  4  5  1  0  0  0  0
  4  6  1  0  0  0  0
  4  8  1  0  0  0  0
  4 16  1  0  0  0  0
  5  7  1  0  0  0  0
  5 17  1  0  0  0  0
  5 18  1  0  0  0  0
  6  7  1  0  0  0  0
  6 19  1  0  0  0  0
  6 20  1  0  0  0  0
  7 21  1  0  0  0  0
  7 22  1  0  0  0  0
  8 23  1  0  0  0  0
  8 24  1  0  0  0  0
  9 10  1  0  0  0  0
 10 11  2  0  0  0  0
 10 12  1  0  0  0  0
 11 13  1  0  0  0  0
 11 26  1  0  0  0  0
 12 14  2  0  0  0  0
 12 27  1  0  0  0  0
 13 15  2  0  0  0  0
 14 15  1  0  0  0  0
 14 28  1  0  0  0  0
 15 29  1  0  0  0  0
M  END
> <PUBCHEM_COMPOUND_CID>
33386437

> <PUBCHEM_COMPOUND_CANONICALIZED>
1

> <PUBCHEM_CACTVS_COMPLEXITY>
228

> <PUBCHEM_CACTVS_HBOND_ACCEPTOR>
1

> <PUBCHEM_CACTVS_HBOND_DONOR>
1

> <PUBCHEM_CACTVS_ROTATABLE_BOND>
3

> <PUBCHEM_CACTVS_SUBSKEYS>
AAADccByIAAAAgAAAAAAAAAAAABgAAAAAAAwAAAAAAAAAAABAAAAHgAwAAAADQDDmAQwAILAAACIAiFSEACCAAAkAAAIiIEIBMgIIDKAlRGEIQhglgCIiYcYiACOAAAAAAAAAAAAAAAAAAAAAAAAAAAAAA==

> <PUBCHEM_IUPAC_OPENEYE_NAME>
N-(cyclobutylmethyl)-3-iodo-benzamide

> <PUBCHEM_IUPAC_CAS_NAME>
N-(cyclobutylmethyl)-3-iodobenzamide

> <PUBCHEM_IUPAC_NAME>
N-(cyclobutylmethyl)-3-iodobenzamide

> <PUBCHEM_IUPAC_SYSTEMATIC_NAME>
N-(cyclobutylmethyl)-3-iodanyl-benzamide

> <PUBCHEM_IUPAC_TRADITIONAL_NAME>
N-(cyclobutylmethyl)-3-iodo-benzamide

> <PUBCHEM_IUPAC_INCHI>
InChI=1S/C12H14INO/c13-11-6-2-5-10(7-11)12(15)14-8-9-3-1-4-9/h2,5-7,9H,1,3-4,8H2,(H,14,15)

> <PUBCHEM_IUPAC_INCHIKEY>
WHQQWOIRHVJHGE-UHFFFAOYSA-N

> <PUBCHEM_XLOGP3>
3.6

> <PUBCHEM_EXACT_MASS>
315.012012

> <PUBCHEM_MOLECULAR_FORMULA>
C12H14INO

> <PUBCHEM_MOLECULAR_WEIGHT>
315.15013

> <PUBCHEM_OPENEYE_CAN_SMILES>
C1CC(C1)CNC(=O)C2=CC(=CC=C2)I

> <PUBCHEM_OPENEYE_ISO_SMILES>
C1CC(C1)CNC(=O)C2=CC(=CC=C2)I

> <PUBCHEM_CACTVS_TPSA>
29.1

> <PUBCHEM_MONOISOTOPIC_WEIGHT>
315.012012

> <PUBCHEM_TOTAL_CHARGE>
0

> <PUBCHEM_HEAVY_ATOM_COUNT>
15

> <PUBCHEM_ATOM_DEF_STEREO_COUNT>
0

> <PUBCHEM_ATOM_UDEF_STEREO_COUNT>
0

> <PUBCHEM_BOND_DEF_STEREO_COUNT>
0

> <PUBCHEM_BOND_UDEF_STEREO_COUNT>
0

> <PUBCHEM_ISOTOPIC_ATOM_COUNT>
0

> <PUBCHEM_COMPONENT_COUNT>
1

> <PUBCHEM_CACTVS_TAUTO_COUNT>
2

> <PUBCHEM_COORDINATE_TYPE>
1
5
255

> <PUBCHEM_BONDANNOTATIONS>
10  11  8
10  12  8
11  13  8
12  14  8
13  15  8
14  15  8

$$$$
33386497
  -OEChem-10191221412D

 29 30  0     0  0  0  0  0  0999 V2000
    2.0000   -0.9830    0.0000 I   0  0  0  0  0  0  0  0  0  0  0  0
    2.8660    0.5170    0.0000 O   0  0  0  0  0  0  0  0  0  0  0  0
    4.5981    0.5170    0.0000 N   0  0  0  0  0  0  0  0  0  0  0  0
    5.4641    2.0170    0.0000 C   0  0  0  0  0  0  0  0  0  0  0  0
    6.4300    1.7582    0.0000 C   0  0  0  0  0  0  0  0  0  0  0  0
    5.7229    2.9830    0.0000 C   0  0  0  0  0  0  0  0  0  0  0  0
    6.6889    2.7241    0.0000 C   0  0  0  0  0  0  0  0  0  0  0  0
    4.5981    1.5170    0.0000 C   0  0  0  0  0  0  0  0  0  0  0  0
    3.7321    0.0170    0.0000 C   0  0  0  0  0  0  0  0  0  0  0  0
    3.7321   -0.9830    0.0000 C   0  0  0  0  0  0  0  0  0  0  0  0
    2.8660   -1.4830    0.0000 C   0  0  0  0  0  0  0  0  0  0  0  0
    4.5981   -1.4830    0.0000 C   0  0  0  0  0  0  0  0  0  0  0  0
    2.8660   -2.4830    0.0000 C   0  0  0  0  0  0  0  0  0  0  0  0
    4.5981   -2.4830    0.0000 C   0  0  0  0  0  0  0  0  0  0  0  0
    3.7321   -2.9830    0.0000 C   0  0  0  0  0  0  0  0  0  0  0  0
    4.9722    2.3945    0.0000 H   0  0  0  0  0  0  0  0  0  0  0  0
    6.2696    1.1593    0.0000 H   0  0  0  0  0  0  0  0  0  0  0  0
    7.0289    1.5978    0.0000 H   0  0  0  0  0  0  0  0  0  0  0  0
    5.8834    3.5818    0.0000 H   0  0  0  0  0  0  0  0  0  0  0  0
    5.1241    3.1434    0.0000 H   0  0  0  0  0  0  0  0  0  0  0  0
    7.2877    2.5637    0.0000 H   0  0  0  0  0  0  0  0  0  0  0  0
    6.8493    3.3230    0.0000 H   0  0  0  0  0  0  0  0  0  0  0  0
    4.3860    2.0997    0.0000 H   0  0  0  0  0  0  0  0  0  0  0  0
    3.9875    1.4094    0.0000 H   0  0  0  0  0  0  0  0  0  0  0  0
    5.1350    0.2070    0.0000 H   0  0  0  0  0  0  0  0  0  0  0  0
    5.1350   -1.1730    0.0000 H   0  0  0  0  0  0  0  0  0  0  0  0
    2.3291   -2.7930    0.0000 H   0  0  0  0  0  0  0  0  0  0  0  0
    5.1350   -2.7930    0.0000 H   0  0  0  0  0  0  0  0  0  0  0  0
    3.7321   -3.6030    0.0000 H   0  0  0  0  0  0  0  0  0  0  0  0
  1 11  1  0  0  0  0
  2  9  2  0  0  0  0
  3  8  1  0  0  0  0
  3  9  1  0  0  0  0
  3 25  1  0  0  0  0
  4  5  1  0  0  0  0
  4  6  1  0  0  0  0
  4  8  1  0  0  0  0
  4 16  1  0  0  0  0
  5  7  1  0  0  0  0
  5 17  1  0  0  0  0
  5 18  1  0  0  0  0
  6  7  1  0  0  0  0
  6 19  1  0  0  0  0
  6 20  1  0  0  0  0
  7 21  1  0  0  0  0
  7 22  1  0  0  0  0
  8 23  1  0  0  0  0
  8 24  1  0  0  0  0
  9 10  1  0  0  0  0
 10 11  1  0  0  0  0
 10 12  2  0  0  0  0
 11 13  2  0  0  0  0
 12 14  1  0  0  0  0
 12 26  1  0  0  0  0
 13 15  1  0  0  0  0
 13 27  1  0  0  0  0
 14 15  2  0  0  0  0
 14 28  1  0  0  0  0
 15 29  1  0  0  0  0
M  END
> <PUBCHEM_COMPOUND_CID>
33386497

> <PUBCHEM_COMPOUND_CANONICALIZED>
1

> <PUBCHEM_CACTVS_COMPLEXITY>
228

> <PUBCHEM_CACTVS_HBOND_ACCEPTOR>
1

> <PUBCHEM_CACTVS_HBOND_DONOR>
1

> <PUBCHEM_CACTVS_ROTATABLE_BOND>
3

> <PUBCHEM_CACTVS_SUBSKEYS>
AAADccByIAAAAgAAAAAAAAAAAABgAAAAAAAwAAAAAAAAAAABAAAAHgAwAAAADQDDmAQwAILAAACIAiFSEACCAAAkAAAIiIEIBMgIIDKAlRGEIQhglgCIiYcYiACOAAAAAAAAAAAAAAAAAAAAAAAAAAAAAA==

> <PUBCHEM_IUPAC_OPENEYE_NAME>
N-(cyclobutylmethyl)-2-iodo-benzamide

> <PUBCHEM_IUPAC_CAS_NAME>
N-(cyclobutylmethyl)-2-iodobenzamide

> <PUBCHEM_IUPAC_NAME>
N-(cyclobutylmethyl)-2-iodobenzamide

> <PUBCHEM_IUPAC_SYSTEMATIC_NAME>
N-(cyclobutylmethyl)-2-iodanyl-benzamide

> <PUBCHEM_IUPAC_TRADITIONAL_NAME>
N-(cyclobutylmethyl)-2-iodo-benzamide

> <PUBCHEM_IUPAC_INCHI>
InChI=1S/C12H14INO/c13-11-7-2-1-6-10(11)12(15)14-8-9-4-3-5-9/h1-2,6-7,9H,3-5,8H2,(H,14,15)

> <PUBCHEM_IUPAC_INCHIKEY>
JZDTVYCGCXSWKU-UHFFFAOYSA-N

> <PUBCHEM_XLOGP3>
2.5

> <PUBCHEM_EXACT_MASS>
315.012012

> <PUBCHEM_MOLECULAR_FORMULA>
C12H14INO

> <PUBCHEM_MOLECULAR_WEIGHT>
315.15013

> <PUBCHEM_OPENEYE_CAN_SMILES>
C1CC(C1)CNC(=O)C2=CC=CC=C2I

> <PUBCHEM_OPENEYE_ISO_SMILES>
C1CC(C1)CNC(=O)C2=CC=CC=C2I

> <PUBCHEM_CACTVS_TPSA>
29.1

> <PUBCHEM_MONOISOTOPIC_WEIGHT>
315.012012

> <PUBCHEM_TOTAL_CHARGE>
0

> <PUBCHEM_HEAVY_ATOM_COUNT>
15

> <PUBCHEM_ATOM_DEF_STEREO_COUNT>
0

> <PUBCHEM_ATOM_UDEF_STEREO_COUNT>
0

> <PUBCHEM_BOND_DEF_STEREO_COUNT>
0

> <PUBCHEM_BOND_UDEF_STEREO_COUNT>
0

> <PUBCHEM_ISOTOPIC_ATOM_COUNT>
0

> <PUBCHEM_COMPONENT_COUNT>
1

> <PUBCHEM_CACTVS_TAUTO_COUNT>
2

> <PUBCHEM_COORDINATE_TYPE>
1
5
255

> <PUBCHEM_BONDANNOTATIONS>
10  11  8
10  12  8
11  13  8
12  14  8
13  15  8
14  15  8

$$$$
33386560
  -OEChem-10191221412D

 42 44  0     0  0  0  0  0  0999 V2000
    7.9244   -0.2139    0.0000 O   0  0  0  0  0  0  0  0  0  0  0  0
    7.5673    1.4809    0.0000 N   0  0  0  0  0  0  0  0  0  0  0  0
    4.6783   -3.3926    0.0000 N   0  0  0  0  0  0  0  0  0  0  0  0
    8.8564    2.6376    0.0000 C   0  0  0  0  0  0  0  0  0  0  0  0
    9.7482    3.0901    0.0000 C   0  0  0  0  0  0  0  0  0  0  0  0
    8.4040    3.5294    0.0000 C   0  0  0  0  0  0  0  0  0  0  0  0
    9.2958    3.9819    0.0000 C   0  0  0  0  0  0  0  0  0  0  0  0
    8.5458    1.6871    0.0000 C   0  0  0  0  0  0  0  0  0  0  0  0
    7.2566    0.5304    0.0000 C   0  0  0  0  0  0  0  0  0  0  0  0
    6.2781    0.3242    0.0000 C   0  0  0  0  0  0  0  0  0  0  0  0
    5.9674   -0.6264    0.0000 C   0  0  0  0  0  0  0  0  0  0  0  0
    4.9889   -0.8326    0.0000 C   0  0  0  0  0  0  0  0  0  0  0  0
    4.6783   -1.7831    0.0000 C   0  0  0  0  0  0  0  0  0  0  0  0
    3.7320   -2.0878    0.0000 C   0  0  0  0  0  0  0  0  0  0  0  0
    3.7320   -3.0878    0.0000 C   0  0  0  0  0  0  0  0  0  0  0  0
    5.2619   -2.5878    0.0000 C   0  0  0  0  0  0  0  0  0  0  0  0
    2.8660   -1.5878    0.0000 C   0  0  0  0  0  0  0  0  0  0  0  0
    2.8660   -3.5878    0.0000 C   0  0  0  0  0  0  0  0  0  0  0  0
    2.0000   -2.0878    0.0000 C   0  0  0  0  0  0  0  0  0  0  0  0
    2.0000   -3.0878    0.0000 C   0  0  0  0  0  0  0  0  0  0  0  0
    9.3272    2.2342    0.0000 H   0  0  0  0  0  0  0  0  0  0  0  0
    8.1235    4.0823    0.0000 H   0  0  0  0  0  0  0  0  0  0  0  0
    7.8511    3.2489    0.0000 H   0  0  0  0  0  0  0  0  0  0  0  0
   10.0287    2.5372    0.0000 H   0  0  0  0  0  0  0  0  0  0  0  0
   10.3011    3.3706    0.0000 H   0  0  0  0  0  0  0  0  0  0  0  0
    9.8487    4.2624    0.0000 H   0  0  0  0  0  0  0  0  0  0  0  0
    9.0153    4.5348    0.0000 H   0  0  0  0  0  0  0  0  0  0  0  0
    8.5663    1.0675    0.0000 H   0  0  0  0  0  0  0  0  0  0  0  0
    9.1596    1.5998    0.0000 H   0  0  0  0  0  0  0  0  0  0  0  0
    7.1532    1.9424    0.0000 H   0  0  0  0  0  0  0  0  0  0  0  0
    6.2575    0.9438    0.0000 H   0  0  0  0  0  0  0  0  0  0  0  0
    5.6643    0.4115    0.0000 H   0  0  0  0  0  0  0  0  0  0  0  0
    5.9880   -1.2460    0.0000 H   0  0  0  0  0  0  0  0  0  0  0  0
    6.5812   -0.7137    0.0000 H   0  0  0  0  0  0  0  0  0  0  0  0
    4.9684   -0.2129    0.0000 H   0  0  0  0  0  0  0  0  0  0  0  0
    4.3751   -0.7452    0.0000 H   0  0  0  0  0  0  0  0  0  0  0  0
    5.8819   -2.5878    0.0000 H   0  0  0  0  0  0  0  0  0  0  0  0
    4.8709   -3.9819    0.0000 H   0  0  0  0  0  0  0  0  0  0  0  0
    2.8660   -0.9678    0.0000 H   0  0  0  0  0  0  0  0  0  0  0  0
    2.8660   -4.2078    0.0000 H   0  0  0  0  0  0  0  0  0  0  0  0
    1.4631   -1.7778    0.0000 H   0  0  0  0  0  0  0  0  0  0  0  0
    1.4631   -3.3978    0.0000 H   0  0  0  0  0  0  0  0  0  0  0  0
  1  9  2  0  0  0  0
  2  8  1  0  0  0  0
  2  9  1  0  0  0  0
  2 30  1  0  0  0  0
  3 15  1  0  0  0  0
  3 16  1  0  0  0  0
  3 38  1  0  0  0  0
  4  5  1  0  0  0  0
  4  6  1  0  0  0  0
  4  8  1  0  0  0  0
  4 21  1  0  0  0  0
  5  7  1  0  0  0  0
  5 24  1  0  0  0  0
  5 25  1  0  0  0  0
  6  7  1  0  0  0  0
  6 22  1  0  0  0  0
  6 23  1  0  0  0  0
  7 26  1  0  0  0  0
  7 27  1  0  0  0  0
  8 28  1  0  0  0  0
  8 29  1  0  0  0  0
  9 10  1  0  0  0  0
 10 11  1  0  0  0  0
 10 31  1  0  0  0  0
 10 32  1  0  0  0  0
 11 12  1  0  0  0  0
 11 33  1  0  0  0  0
 11 34  1  0  0  0  0
 12 13  1  0  0  0  0
 12 35  1  0  0  0  0
 12 36  1  0  0  0  0
 13 14  1  0  0  0  0
 13 16  2  0  0  0  0
 14 15  1  0  0  0  0
 14 17  2  0  0  0  0
 15 18  2  0  0  0  0
 16 37  1  0  0  0  0
 17 19  1  0  0  0  0
 17 39  1  0  0  0  0
 18 20  1  0  0  0  0
 18 40  1  0  0  0  0
 19 20  2  0  0  0  0
 19 41  1  0  0  0  0
 20 42  1  0  0  0  0
M  END
> <PUBCHEM_COMPOUND_CID>
33386560

> <PUBCHEM_COMPOUND_CANONICALIZED>
1

> <PUBCHEM_CACTVS_COMPLEXITY>
327

> <PUBCHEM_CACTVS_HBOND_ACCEPTOR>
1

> <PUBCHEM_CACTVS_HBOND_DONOR>
2

> <PUBCHEM_CACTVS_ROTATABLE_BOND>
6

> <PUBCHEM_CACTVS_SUBSKEYS>
AAADceB7IAAAAAAAAAAAAAAAAABgAWAAAAAwAAAAAAAAAFgB8AAAHgAQAAAADQjBngQ8wPLJkACoAzV3VACCgCAxAiAI2aE4ZJgIIPLAkZGEIAhglgDIyAcYiMCOgAAAAAACAAAAAAAAAAQAAAAAAAAAAA==

> <PUBCHEM_IUPAC_OPENEYE_NAME>
N-(cyclobutylmethyl)-4-(1H-indol-3-yl)butanamide

> <PUBCHEM_IUPAC_CAS_NAME>
N-(cyclobutylmethyl)-4-(1H-indol-3-yl)butanamide

> <PUBCHEM_IUPAC_NAME>
N-(cyclobutylmethyl)-4-(1H-indol-3-yl)butanamide

> <PUBCHEM_IUPAC_SYSTEMATIC_NAME>
N-(cyclobutylmethyl)-4-(1H-indol-3-yl)butanamide

> <PUBCHEM_IUPAC_TRADITIONAL_NAME>
N-(cyclobutylmethyl)-4-(1H-indol-3-yl)butyramide

> <PUBCHEM_IUPAC_INCHI>
InChI=1S/C17H22N2O/c20-17(19-11-13-5-3-6-13)10-4-7-14-12-18-16-9-2-1-8-15(14)16/h1-2,8-9,12-13,18H,3-7,10-11H2,(H,19,20)

> <PUBCHEM_IUPAC_INCHIKEY>
GLWLFVHNIDLCKG-UHFFFAOYSA-N

> <PUBCHEM_XLOGP3>
3.3

> <PUBCHEM_EXACT_MASS>
270.173213

> <PUBCHEM_MOLECULAR_FORMULA>
C17H22N2O

> <PUBCHEM_MOLECULAR_WEIGHT>
270.36938

> <PUBCHEM_OPENEYE_CAN_SMILES>
C1CC(C1)CNC(=O)CCCC2=CNC3=CC=CC=C32

> <PUBCHEM_OPENEYE_ISO_SMILES>
C1CC(C1)CNC(=O)CCCC2=CNC3=CC=CC=C32

> <PUBCHEM_CACTVS_TPSA>
44.9

> <PUBCHEM_MONOISOTOPIC_WEIGHT>
270.173213

> <PUBCHEM_TOTAL_CHARGE>
0

> <PUBCHEM_HEAVY_ATOM_COUNT>
20

> <PUBCHEM_ATOM_DEF_STEREO_COUNT>
0

> <PUBCHEM_ATOM_UDEF_STEREO_COUNT>
0

> <PUBCHEM_BOND_DEF_STEREO_COUNT>
0

> <PUBCHEM_BOND_UDEF_STEREO_COUNT>
0

> <PUBCHEM_ISOTOPIC_ATOM_COUNT>
0

> <PUBCHEM_COMPONENT_COUNT>
1

> <PUBCHEM_CACTVS_TAUTO_COUNT>
2

> <PUBCHEM_COORDINATE_TYPE>
1
5
255

> <PUBCHEM_BONDANNOTATIONS>
13  14  8
13  16  8
14  15  8
14  17  8
15  18  8
17  19  8
18  20  8
19  20  8
3  15  8
3  16  8

$$$$
