52726170
  -OEChem-11301218022D

 46 48  0     0  0  0  0  0  0999 V2000
    2.4430   -1.5194    0.0000 O   0  0  0  0  0  0  0  0  0  0  0  0
    3.3090    2.9806    0.0000 N   0  3  0  0  0  0  0  0  0  0  0  0
    3.3090   -0.0194    0.0000 N   0  0  0  0  0  0  0  0  0  0  0  0
    3.3090    1.9806    0.0000 C   0  0  0  0  0  0  0  0  0  0  0  0
    3.6180    3.9316    0.0000 C   0  0  0  0  0  0  0  0  0  0  0  0
    2.3090    2.9806    0.0000 C   0  0  0  0  0  0  0  0  0  0  0  0
    2.4430    1.4806    0.0000 C   0  0  0  0  0  0  0  0  0  0  0  0
    4.1750    1.4806    0.0000 C   0  0  0  0  0  0  0  0  0  0  0  0
    2.8090    4.5194    0.0000 C   0  0  0  0  0  0  0  0  0  0  0  0
    2.0000    3.9316    0.0000 C   0  0  0  0  0  0  0  0  0  0  0  0
    2.4430    0.4806    0.0000 C   0  0  0  0  0  0  0  0  0  0  0  0
    4.1750    0.4806    0.0000 C   0  0  0  0  0  0  0  0  0  0  0  0
    3.3090   -1.0194    0.0000 C   0  0  0  0  0  0  0  0  0  0  0  0
    4.1750   -1.5194    0.0000 C   0  0  0  0  0  0  0  0  0  0  0  0
    4.1750   -2.5194    0.0000 C   0  0  0  0  0  0  0  0  0  0  0  0
    5.0411   -3.0194    0.0000 C   0  0  0  0  0  0  0  0  0  0  0  0
    5.9071   -2.5194    0.0000 C   0  0  0  0  0  0  0  0  0  0  0  0
    5.0411   -4.0194    0.0000 C   0  0  0  0  0  0  0  0  0  0  0  0
    6.7731   -3.0194    0.0000 C   0  0  0  0  0  0  0  0  0  0  0  0
    5.9071   -4.5194    0.0000 C   0  0  0  0  0  0  0  0  0  0  0  0
    6.7731   -4.0194    0.0000 C   0  0  0  0  0  0  0  0  0  0  0  0
    4.2601    2.6716    0.0000 H   0  0  0  0  0  0  0  0  0  0  0  0
    2.7721    2.2906    0.0000 H   0  0  0  0  0  0  0  0  0  0  0  0
    1.7026    2.8517    0.0000 H   0  0  0  0  0  0  0  0  0  0  0  0
    2.3738    2.3640    0.0000 H   0  0  0  0  0  0  0  0  0  0  0  0
    4.1844    3.6795    0.0000 H   0  0  0  0  0  0  0  0  0  0  0  0
    3.9280    4.4686    0.0000 H   0  0  0  0  0  0  0  0  0  0  0  0
    4.7856    1.3729    0.0000 H   0  0  0  0  0  0  0  0  0  0  0  0
    4.3871    2.0632    0.0000 H   0  0  0  0  0  0  0  0  0  0  0  0
    2.2309    2.0632    0.0000 H   0  0  0  0  0  0  0  0  0  0  0  0
    1.8324    1.3729    0.0000 H   0  0  0  0  0  0  0  0  0  0  0  0
    1.6900    4.4686    0.0000 H   0  0  0  0  0  0  0  0  0  0  0  0
    1.4336    3.6795    0.0000 H   0  0  0  0  0  0  0  0  0  0  0  0
    3.2239    4.9802    0.0000 H   0  0  0  0  0  0  0  0  0  0  0  0
    2.3942    4.9802    0.0000 H   0  0  0  0  0  0  0  0  0  0  0  0
    4.3871   -0.1020    0.0000 H   0  0  0  0  0  0  0  0  0  0  0  0
    4.7856    0.5882    0.0000 H   0  0  0  0  0  0  0  0  0  0  0  0
    1.8324    0.5882    0.0000 H   0  0  0  0  0  0  0  0  0  0  0  0
    2.2309   -0.1020    0.0000 H   0  0  0  0  0  0  0  0  0  0  0  0
    4.7120   -1.2094    0.0000 H   0  0  0  0  0  0  0  0  0  0  0  0
    3.6381   -2.8294    0.0000 H   0  0  0  0  0  0  0  0  0  0  0  0
    5.9071   -1.8994    0.0000 H   0  0  0  0  0  0  0  0  0  0  0  0
    4.5041   -4.3294    0.0000 H   0  0  0  0  0  0  0  0  0  0  0  0
    7.3100   -2.7094    0.0000 H   0  0  0  0  0  0  0  0  0  0  0  0
    5.9071   -5.1394    0.0000 H   0  0  0  0  0  0  0  0  0  0  0  0
    7.3100   -4.3294    0.0000 H   0  0  0  0  0  0  0  0  0  0  0  0
  1 13  2  0  0  0  0
  2  4  1  0  0  0  0
  2  5  1  0  0  0  0
  2  6  1  0  0  0  0
  2 22  1  0  0  0  0
  3 11  1  0  0  0  0
  3 12  1  0  0  0  0
  3 13  1  0  0  0  0
  4  7  1  0  0  0  0
  4  8  1  0  0  0  0
  4 23  1  0  0  0  0
  5  9  1  0  0  0  0
  5 26  1  0  0  0  0
  5 27  1  0  0  0  0
  6 10  1  0  0  0  0
  6 24  1  0  0  0  0
  6 25  1  0  0  0  0
  7 11  1  0  0  0  0
  7 30  1  0  0  0  0
  7 31  1  0  0  0  0
  8 12  1  0  0  0  0
  8 28  1  0  0  0  0
  8 29  1  0  0  0  0
  9 10  1  0  0  0  0
  9 34  1  0  0  0  0
  9 35  1  0  0  0  0
 10 32  1  0  0  0  0
 10 33  1  0  0  0  0
 11 38  1  0  0  0  0
 11 39  1  0  0  0  0
 12 36  1  0  0  0  0
 12 37  1  0  0  0  0
 13 14  1  0  0  0  0
 14 15  2  0  0  0  0
 14 40  1  0  0  0  0
 15 16  1  0  0  0  0
 15 41  1  0  0  0  0
 16 17  2  0  0  0  0
 16 18  1  0  0  0  0
 17 19  1  0  0  0  0
 17 42  1  0  0  0  0
 18 20  2  0  0  0  0
 18 43  1  0  0  0  0
 19 21  2  0  0  0  0
 19 44  1  0  0  0  0
 20 21  1  0  0  0  0
 20 45  1  0  0  0  0
 21 46  1  0  0  0  0
M  CHG  1   2   1
M  END
> <PUBCHEM_COMPOUND_CID>
52726170

> <PUBCHEM_COMPOUND_CANONICALIZED>
1

> <PUBCHEM_CACTVS_COMPLEXITY>
359

> <PUBCHEM_CACTVS_HBOND_ACCEPTOR>
1

> <PUBCHEM_CACTVS_HBOND_DONOR>
1

> <PUBCHEM_CACTVS_ROTATABLE_BOND>
3

> <PUBCHEM_CACTVS_SUBSKEYS>
AAADceB7IAAAAAAAAAAAAAAAAAAAAWAAAAA8QAAAAAAAAAABAAAAHgAQAAAADCjBmAQwAIPAAACIAiFSEACCAAAgAAAIiIAIAMgIICKA0RCEIAAglgCIiYcQgAAOAAAAAAAAAAAAAAAAAAAAAAAAAAAAAA==

> <PUBCHEM_IUPAC_OPENEYE_NAME>
(E)-3-phenyl-1-(4-pyrrolidin-1-ium-1-yl-1-piperidyl)prop-2-en-1-one

> <PUBCHEM_IUPAC_CAS_NAME>
(E)-3-phenyl-1-[4-(1-pyrrolidin-1-iumyl)-1-piperidinyl]-2-propen-1-one

> <PUBCHEM_IUPAC_NAME>
(E)-3-phenyl-1-(4-pyrrolidin-1-ium-1-ylpiperidin-1-yl)prop-2-en-1-one

> <PUBCHEM_IUPAC_SYSTEMATIC_NAME>
(E)-3-phenyl-1-(4-pyrrolidin-1-ium-1-ylpiperidin-1-yl)prop-2-en-1-one

> <PUBCHEM_IUPAC_TRADITIONAL_NAME>
(E)-3-phenyl-1-(4-pyrrolidin-1-ium-1-ylpiperidino)prop-2-en-1-one

> <PUBCHEM_IUPAC_INCHI>
InChI=1S/C18H24N2O/c21-18(9-8-16-6-2-1-3-7-16)20-14-10-17(11-15-20)19-12-4-5-13-19/h1-3,6-9,17H,4-5,10-15H2/p+1/b9-8+

> <PUBCHEM_IUPAC_INCHIKEY>
AKBRIUUEEMUWDZ-CMDGGOBGSA-O

> <PUBCHEM_XLOGP3>
3

> <PUBCHEM_EXACT_MASS>
285.196688

> <PUBCHEM_MOLECULAR_FORMULA>
C18H25N2O+

> <PUBCHEM_MOLECULAR_WEIGHT>
285.4039

> <PUBCHEM_OPENEYE_CAN_SMILES>
C1CC[NH+](C1)C2CCN(CC2)C(=O)C=CC3=CC=CC=C3

> <PUBCHEM_OPENEYE_ISO_SMILES>
C1CC[NH+](C1)C2CCN(CC2)C(=O)/C=C/C3=CC=CC=C3

> <PUBCHEM_CACTVS_TPSA>
24.8

> <PUBCHEM_MONOISOTOPIC_WEIGHT>
285.196688

> <PUBCHEM_TOTAL_CHARGE>
1

> <PUBCHEM_HEAVY_ATOM_COUNT>
21

> <PUBCHEM_ATOM_DEF_STEREO_COUNT>
0

> <PUBCHEM_ATOM_UDEF_STEREO_COUNT>
0

> <PUBCHEM_BOND_DEF_STEREO_COUNT>
1

> <PUBCHEM_BOND_UDEF_STEREO_COUNT>
0

> <PUBCHEM_ISOTOPIC_ATOM_COUNT>
0

> <PUBCHEM_COMPONENT_COUNT>
1

> <PUBCHEM_CACTVS_TAUTO_COUNT>
1

> <PUBCHEM_COORDINATE_TYPE>
1
5
255

> <PUBCHEM_BONDANNOTATIONS>
16  17  8
16  18  8
17  19  8
18  20  8
19  21  8
20  21  8

$$$$
52726271
  -OEChem-11301218022D

 49 51  0     0  0  0  0  0  0999 V2000
    2.6340   -1.6160    0.0000 O   0  0  0  0  0  0  0  0  0  0  0  0
    3.5000    2.8840    0.0000 N   0  3  0  0  0  0  0  0  0  0  0  0
    3.5000   -0.1160    0.0000 N   0  0  0  0  0  0  0  0  0  0  0  0
    3.5000    1.8840    0.0000 C   0  0  0  0  0  0  0  0  0  0  0  0
    4.0000    3.7500    0.0000 C   0  0  0  0  0  0  0  0  0  0  0  0
    2.5000    2.8840    0.0000 C   0  0  0  0  0  0  0  0  0  0  0  0
    2.6340    1.3840    0.0000 C   0  0  0  0  0  0  0  0  0  0  0  0
    4.3660    1.3840    0.0000 C   0  0  0  0  0  0  0  0  0  0  0  0
    3.5000    4.6160    0.0000 C   0  0  0  0  0  0  0  0  0  0  0  0
    2.0000    3.7500    0.0000 C   0  0  0  0  0  0  0  0  0  0  0  0
    2.5000    4.6160    0.0000 C   0  0  0  0  0  0  0  0  0  0  0  0
    2.6340    0.3840    0.0000 C   0  0  0  0  0  0  0  0  0  0  0  0
    4.3660    0.3840    0.0000 C   0  0  0  0  0  0  0  0  0  0  0  0
    3.5000   -1.1160    0.0000 C   0  0  0  0  0  0  0  0  0  0  0  0
    4.3660   -1.6160    0.0000 C   0  0  0  0  0  0  0  0  0  0  0  0
    4.3660   -2.6160    0.0000 C   0  0  0  0  0  0  0  0  0  0  0  0
    5.2320   -3.1160    0.0000 C   0  0  0  0  0  0  0  0  0  0  0  0
    6.0981   -2.6160    0.0000 C   0  0  0  0  0  0  0  0  0  0  0  0
    5.2320   -4.1160    0.0000 C   0  0  0  0  0  0  0  0  0  0  0  0
    6.9641   -3.1160    0.0000 C   0  0  0  0  0  0  0  0  0  0  0  0
    6.0981   -4.6160    0.0000 C   0  0  0  0  0  0  0  0  0  0  0  0
    6.9641   -4.1160    0.0000 C   0  0  0  0  0  0  0  0  0  0  0  0
    4.3660    2.3840    0.0000 H   0  0  0  0  0  0  0  0  0  0  0  0
    4.0369    2.1940    0.0000 H   0  0  0  0  0  0  0  0  0  0  0  0
    1.9174    2.6719    0.0000 H   0  0  0  0  0  0  0  0  0  0  0  0
    2.6077    2.2734    0.0000 H   0  0  0  0  0  0  0  0  0  0  0  0
    4.4750    3.3515    0.0000 H   0  0  0  0  0  0  0  0  0  0  0  0
    4.4750    4.1485    0.0000 H   0  0  0  0  0  0  0  0  0  0  0  0
    4.9766    1.2763    0.0000 H   0  0  0  0  0  0  0  0  0  0  0  0
    4.5781    1.9666    0.0000 H   0  0  0  0  0  0  0  0  0  0  0  0
    2.4219    1.9666    0.0000 H   0  0  0  0  0  0  0  0  0  0  0  0
    2.0234    1.2763    0.0000 H   0  0  0  0  0  0  0  0  0  0  0  0
    1.5250    4.1485    0.0000 H   0  0  0  0  0  0  0  0  0  0  0  0
    1.5250    3.3515    0.0000 H   0  0  0  0  0  0  0  0  0  0  0  0
    4.0826    4.8281    0.0000 H   0  0  0  0  0  0  0  0  0  0  0  0
    3.3923    5.2266    0.0000 H   0  0  0  0  0  0  0  0  0  0  0  0
    2.6077    5.2266    0.0000 H   0  0  0  0  0  0  0  0  0  0  0  0
    1.9174    4.8281    0.0000 H   0  0  0  0  0  0  0  0  0  0  0  0
    4.5781   -0.1986    0.0000 H   0  0  0  0  0  0  0  0  0  0  0  0
    4.9766    0.4916    0.0000 H   0  0  0  0  0  0  0  0  0  0  0  0
    2.0234    0.4916    0.0000 H   0  0  0  0  0  0  0  0  0  0  0  0
    2.4219   -0.1986    0.0000 H   0  0  0  0  0  0  0  0  0  0  0  0
    4.9030   -1.3060    0.0000 H   0  0  0  0  0  0  0  0  0  0  0  0
    3.8291   -2.9260    0.0000 H   0  0  0  0  0  0  0  0  0  0  0  0
    6.0981   -1.9960    0.0000 H   0  0  0  0  0  0  0  0  0  0  0  0
    4.6951   -4.4260    0.0000 H   0  0  0  0  0  0  0  0  0  0  0  0
    7.5010   -2.8060    0.0000 H   0  0  0  0  0  0  0  0  0  0  0  0
    6.0981   -5.2360    0.0000 H   0  0  0  0  0  0  0  0  0  0  0  0
    7.5010   -4.4260    0.0000 H   0  0  0  0  0  0  0  0  0  0  0  0
  1 14  2  0  0  0  0
  2  4  1  0  0  0  0
  2  5  1  0  0  0  0
  2  6  1  0  0  0  0
  2 23  1  0  0  0  0
  3 12  1  0  0  0  0
  3 13  1  0  0  0  0
  3 14  1  0  0  0  0
  4  7  1  0  0  0  0
  4  8  1  0  0  0  0
  4 24  1  0  0  0  0
  5  9  1  0  0  0  0
  5 27  1  0  0  0  0
  5 28  1  0  0  0  0
  6 10  1  0  0  0  0
  6 25  1  0  0  0  0
  6 26  1  0  0  0  0
  7 12  1  0  0  0  0
  7 31  1  0  0  0  0
  7 32  1  0  0  0  0
  8 13  1  0  0  0  0
  8 29  1  0  0  0  0
  8 30  1  0  0  0  0
  9 11  1  0  0  0  0
  9 35  1  0  0  0  0
  9 36  1  0  0  0  0
 10 11  1  0  0  0  0
 10 33  1  0  0  0  0
 10 34  1  0  0  0  0
 11 37  1  0  0  0  0
 11 38  1  0  0  0  0
 12 41  1  0  0  0  0
 12 42  1  0  0  0  0
 13 39  1  0  0  0  0
 13 40  1  0  0  0  0
 14 15  1  0  0  0  0
 15 16  2  0  0  0  0
 15 43  1  0  0  0  0
 16 17  1  0  0  0  0
 16 44  1  0  0  0  0
 17 18  2  0  0  0  0
 17 19  1  0  0  0  0
 18 20  1  0  0  0  0
 18 45  1  0  0  0  0
 19 21  2  0  0  0  0
 19 46  1  0  0  0  0
 20 22  2  0  0  0  0
 20 47  1  0  0  0  0
 21 22  1  0  0  0  0
 21 48  1  0  0  0  0
 22 49  1  0  0  0  0
M  CHG  1   2   1
M  END
> <PUBCHEM_COMPOUND_CID>
52726271

> <PUBCHEM_COMPOUND_CANONICALIZED>
1

> <PUBCHEM_CACTVS_COMPLEXITY>
373

> <PUBCHEM_CACTVS_HBOND_ACCEPTOR>
1

> <PUBCHEM_CACTVS_HBOND_DONOR>
1

> <PUBCHEM_CACTVS_ROTATABLE_BOND>
3

> <PUBCHEM_CACTVS_SUBSKEYS>
AAADceB7IAAAAAAAAAAAAAAAAAAAAAAAAAA8WIAAAAAAAAABAAAAHgAQAAAADCjBmAQwAIPAAACIAiFSEACCAAAgAAAIiIAIAMgIICKA0RCEIAAglgCIiYcQgAAOAAAAAAAAAAAAAAAAAAAAAAAAAAAAAA==

> <PUBCHEM_IUPAC_OPENEYE_NAME>
(E)-3-phenyl-1-(4-piperidin-1-ium-1-yl-1-piperidyl)prop-2-en-1-one

> <PUBCHEM_IUPAC_CAS_NAME>
(E)-3-phenyl-1-[4-(1-piperidin-1-iumyl)-1-piperidinyl]-2-propen-1-one

> <PUBCHEM_IUPAC_NAME>
(E)-3-phenyl-1-(4-piperidin-1-ium-1-ylpiperidin-1-yl)prop-2-en-1-one

> <PUBCHEM_IUPAC_SYSTEMATIC_NAME>
(E)-3-phenyl-1-(4-piperidin-1-ium-1-ylpiperidin-1-yl)prop-2-en-1-one

> <PUBCHEM_IUPAC_TRADITIONAL_NAME>
(E)-3-phenyl-1-(4-piperidin-1-ium-1-ylpiperidino)prop-2-en-1-one

> <PUBCHEM_IUPAC_INCHI>
InChI=1S/C19H26N2O/c22-19(10-9-17-7-3-1-4-8-17)21-15-11-18(12-16-21)20-13-5-2-6-14-20/h1,3-4,7-10,18H,2,5-6,11-16H2/p+1/b10-9+

> <PUBCHEM_IUPAC_INCHIKEY>
JGRFDAGHLISNJS-MDZDMXLPSA-O

> <PUBCHEM_XLOGP3>
3.3

> <PUBCHEM_EXACT_MASS>
299.212338

> <PUBCHEM_MOLECULAR_FORMULA>
C19H27N2O+

> <PUBCHEM_MOLECULAR_WEIGHT>
299.43048

> <PUBCHEM_OPENEYE_CAN_SMILES>
C1CC[NH+](CC1)C2CCN(CC2)C(=O)C=CC3=CC=CC=C3

> <PUBCHEM_OPENEYE_ISO_SMILES>
C1CC[NH+](CC1)C2CCN(CC2)C(=O)/C=C/C3=CC=CC=C3

> <PUBCHEM_CACTVS_TPSA>
24.8

> <PUBCHEM_MONOISOTOPIC_WEIGHT>
299.212338

> <PUBCHEM_TOTAL_CHARGE>
1

> <PUBCHEM_HEAVY_ATOM_COUNT>
22

> <PUBCHEM_ATOM_DEF_STEREO_COUNT>
0

> <PUBCHEM_ATOM_UDEF_STEREO_COUNT>
0

> <PUBCHEM_BOND_DEF_STEREO_COUNT>
1

> <PUBCHEM_BOND_UDEF_STEREO_COUNT>
0

> <PUBCHEM_ISOTOPIC_ATOM_COUNT>
0

> <PUBCHEM_COMPONENT_COUNT>
1

> <PUBCHEM_CACTVS_TAUTO_COUNT>
1

> <PUBCHEM_COORDINATE_TYPE>
1
5
255

> <PUBCHEM_BONDANNOTATIONS>
17  18  8
17  19  8
18  20  8
19  21  8
20  22  8
21  22  8

$$$$
52731443
  -OEChem-11301218032D

 60 62  0     0  0  0  0  0  0999 V2000
    3.8171    0.2694    0.0000 O   0  0  0  0  0  0  0  0  0  0  0  0
    2.9511   -4.2306    0.0000 N   0  3  0  0  0  0  0  0  0  0  0  0
    7.2812    4.2694    0.0000 N   0  3  0  0  0  0  0  0  0  0  0  0
    5.5491    0.2694    0.0000 N   0  0  0  0  0  0  0  0  0  0  0  0
    2.6420   -5.1816    0.0000 C   0  0  0  0  0  0  0  0  0  0  0  0
    3.9511   -4.2306    0.0000 C   0  0  0  0  0  0  0  0  0  0  0  0
    3.4511   -5.7694    0.0000 C   0  0  0  0  0  0  0  0  0  0  0  0
    4.2601   -5.1816    0.0000 C   0  0  0  0  0  0  0  0  0  0  0  0
    2.9511   -3.2306    0.0000 C   0  0  0  0  0  0  0  0  0  0  0  0
    3.8171   -2.7306    0.0000 C   0  0  0  0  0  0  0  0  0  0  0  0
    3.8171   -1.7306    0.0000 C   0  0  0  0  0  0  0  0  0  0  0  0
    4.6831   -3.2306    0.0000 C   0  0  0  0  0  0  0  0  0  0  0  0
    7.2812    3.2694    0.0000 C   0  0  0  0  0  0  0  0  0  0  0  0
    7.2812    5.2694    0.0000 C   0  0  0  0  0  0  0  0  0  0  0  0
    8.2812    4.2694    0.0000 C   0  0  0  0  0  0  0  0  0  0  0  0
    4.6831   -1.2306    0.0000 C   0  0  0  0  0  0  0  0  0  0  0  0
    5.5491   -2.7306    0.0000 C   0  0  0  0  0  0  0  0  0  0  0  0
    6.4152    2.7694    0.0000 C   0  0  0  0  0  0  0  0  0  0  0  0
    5.5491   -1.7306    0.0000 C   0  0  0  0  0  0  0  0  0  0  0  0
    8.7812    3.4034    0.0000 C   0  0  0  0  0  0  0  0  0  0  0  0
    8.1472    5.7694    0.0000 C   0  0  0  0  0  0  0  0  0  0  0  0
    4.6831   -0.2306    0.0000 C   0  0  0  0  0  0  0  0  0  0  0  0
    6.4152    1.7694    0.0000 C   0  0  0  0  0  0  0  0  0  0  0  0
    5.5491    1.2694    0.0000 C   0  0  0  0  0  0  0  0  0  0  0  0
    5.5491    3.2694    0.0000 C   0  0  0  0  0  0  0  0  0  0  0  0
    4.6831    1.7694    0.0000 C   0  0  0  0  0  0  0  0  0  0  0  0
    4.6831    2.7694    0.0000 C   0  0  0  0  0  0  0  0  0  0  0  0
    2.0000   -3.9216    0.0000 H   0  0  0  0  0  0  0  0  0  0  0  0
    2.0756   -4.9295    0.0000 H   0  0  0  0  0  0  0  0  0  0  0  0
    2.3320   -5.7186    0.0000 H   0  0  0  0  0  0  0  0  0  0  0  0
    4.5575   -4.1017    0.0000 H   0  0  0  0  0  0  0  0  0  0  0  0
    3.8862   -3.6140    0.0000 H   0  0  0  0  0  0  0  0  0  0  0  0
    3.0362   -6.2302    0.0000 H   0  0  0  0  0  0  0  0  0  0  0  0
    3.8659   -6.2302    0.0000 H   0  0  0  0  0  0  0  0  0  0  0  0
    4.5701   -5.7186    0.0000 H   0  0  0  0  0  0  0  0  0  0  0  0
    4.8265   -4.9295    0.0000 H   0  0  0  0  0  0  0  0  0  0  0  0
    2.7390   -2.6480    0.0000 H   0  0  0  0  0  0  0  0  0  0  0  0
    2.3405   -3.3382    0.0000 H   0  0  0  0  0  0  0  0  0  0  0  0
    6.6612    4.2694    0.0000 H   0  0  0  0  0  0  0  0  0  0  0  0
    3.2802   -1.4206    0.0000 H   0  0  0  0  0  0  0  0  0  0  0  0
    4.6831   -3.8506    0.0000 H   0  0  0  0  0  0  0  0  0  0  0  0
    7.4932    2.6868    0.0000 H   0  0  0  0  0  0  0  0  0  0  0  0
    7.8918    3.3771    0.0000 H   0  0  0  0  0  0  0  0  0  0  0  0
    7.0691    5.8520    0.0000 H   0  0  0  0  0  0  0  0  0  0  0  0
    6.6706    5.1618    0.0000 H   0  0  0  0  0  0  0  0  0  0  0  0
    8.8638    4.4815    0.0000 H   0  0  0  0  0  0  0  0  0  0  0  0
    8.1735    4.8800    0.0000 H   0  0  0  0  0  0  0  0  0  0  0  0
    6.0861   -3.0406    0.0000 H   0  0  0  0  0  0  0  0  0  0  0  0
    6.0861   -1.4206    0.0000 H   0  0  0  0  0  0  0  0  0  0  0  0
    8.2442    3.0934    0.0000 H   0  0  0  0  0  0  0  0  0  0  0  0
    9.0912    2.8665    0.0000 H   0  0  0  0  0  0  0  0  0  0  0  0
    9.3181    3.7134    0.0000 H   0  0  0  0  0  0  0  0  0  0  0  0
    8.4572    5.2325    0.0000 H   0  0  0  0  0  0  0  0  0  0  0  0
    8.6841    6.0794    0.0000 H   0  0  0  0  0  0  0  0  0  0  0  0
    7.8372    6.3064    0.0000 H   0  0  0  0  0  0  0  0  0  0  0  0
    6.9521    1.4594    0.0000 H   0  0  0  0  0  0  0  0  0  0  0  0
    5.5491    3.8894    0.0000 H   0  0  0  0  0  0  0  0  0  0  0  0
    6.0861   -0.0406    0.0000 H   0  0  0  0  0  0  0  0  0  0  0  0
    4.1462    1.4594    0.0000 H   0  0  0  0  0  0  0  0  0  0  0  0
    4.1462    3.0794    0.0000 H   0  0  0  0  0  0  0  0  0  0  0  0
  1 22  2  0  0  0  0
  2  5  1  0  0  0  0
  2  6  1  0  0  0  0
  2  9  1  0  0  0  0
  2 28  1  0  0  0  0
  3 13  1  0  0  0  0
  3 14  1  0  0  0  0
  3 15  1  0  0  0  0
  3 39  1  0  0  0  0
  4 22  1  0  0  0  0
  4 24  1  0  0  0  0
  4 58  1  0  0  0  0
  5  7  1  0  0  0  0
  5 29  1  0  0  0  0
  5 30  1  0  0  0  0
  6  8  1  0  0  0  0
  6 31  1  0  0  0  0
  6 32  1  0  0  0  0
  7  8  1  0  0  0  0
  7 33  1  0  0  0  0
  7 34  1  0  0  0  0
  8 35  1  0  0  0  0
  8 36  1  0  0  0  0
  9 10  1  0  0  0  0
  9 37  1  0  0  0  0
  9 38  1  0  0  0  0
 10 11  2  0  0  0  0
 10 12  1  0  0  0  0
 11 16  1  0  0  0  0
 11 40  1  0  0  0  0
 12 17  2  0  0  0  0
 12 41  1  0  0  0  0
 13 18  1  0  0  0  0
 13 42  1  0  0  0  0
 13 43  1  0  0  0  0
 14 21  1  0  0  0  0
 14 44  1  0  0  0  0
 14 45  1  0  0  0  0
 15 20  1  0  0  0  0
 15 46  1  0  0  0  0
 15 47  1  0  0  0  0
 16 19  2  0  0  0  0
 16 22  1  0  0  0  0
 17 19  1  0  0  0  0
 17 48  1  0  0  0  0
 18 23  2  0  0  0  0
 18 25  1  0  0  0  0
 19 49  1  0  0  0  0
 20 50  1  0  0  0  0
 20 51  1  0  0  0  0
 20 52  1  0  0  0  0
 21 53  1  0  0  0  0
 21 54  1  0  0  0  0
 21 55  1  0  0  0  0
 23 24  1  0  0  0  0
 23 56  1  0  0  0  0
 24 26  2  0  0  0  0
 25 27  2  0  0  0  0
 25 57  1  0  0  0  0
 26 27  1  0  0  0  0
 26 59  1  0  0  0  0
 27 60  1  0  0  0  0
M  CHG  2   2   1   3   1
M  END
> <PUBCHEM_COMPOUND_CID>
52731443

> <PUBCHEM_COMPOUND_CANONICALIZED>
1

> <PUBCHEM_CACTVS_COMPLEXITY>
445

> <PUBCHEM_CACTVS_HBOND_ACCEPTOR>
1

> <PUBCHEM_CACTVS_HBOND_DONOR>
3

> <PUBCHEM_CACTVS_ROTATABLE_BOND>
8

> <PUBCHEM_CACTVS_SUBSKEYS>
AAADcfB7IAAAAAAAAAAAAAAAAAAAAWAAAAAwYAAAAAAAAAABQAAAHgAQAAAADAjBmAQywIPAAACIAiVSUACCAAAlAgAIiIEIZMgIIDLAlZGEIQhglADIyYcYiUCOAAACQAAAAAAAAASAAAAAAAAAAAAAAA==

> <PUBCHEM_IUPAC_OPENEYE_NAME>
diethyl-[[3-[[3-(pyrrolidin-1-ium-1-ylmethyl)benzoyl]amino]phenyl]methyl]ammonium

> <PUBCHEM_IUPAC_CAS_NAME>
diethyl-[[3-[[oxo-[3-(1-pyrrolidin-1-iumylmethyl)phenyl]methyl]amino]phenyl]methyl]ammonium

> <PUBCHEM_IUPAC_NAME>
diethyl-[[3-[[3-(pyrrolidin-1-ium-1-ylmethyl)benzoyl]amino]phenyl]methyl]azanium

> <PUBCHEM_IUPAC_SYSTEMATIC_NAME>
diethyl-[[3-[[3-(pyrrolidin-1-ium-1-ylmethyl)phenyl]carbonylamino]phenyl]methyl]azanium

> <PUBCHEM_IUPAC_TRADITIONAL_NAME>
diethyl-[3-[[3-(pyrrolidin-1-ium-1-ylmethyl)benzoyl]amino]benzyl]ammonium

> <PUBCHEM_IUPAC_INCHI>
InChI=1S/C23H31N3O/c1-3-25(4-2)17-20-10-8-12-22(16-20)24-23(27)21-11-7-9-19(15-21)18-26-13-5-6-14-26/h7-12,15-16H,3-6,13-14,17-18H2,1-2H3,(H,24,27)/p+2

> <PUBCHEM_IUPAC_INCHIKEY>
QUZZDJDMZHOPNT-UHFFFAOYSA-P

> <PUBCHEM_XLOGP3>
2.9

> <PUBCHEM_EXACT_MASS>
367.262363

> <PUBCHEM_MOLECULAR_FORMULA>
C23H33N3O+2

> <PUBCHEM_MOLECULAR_WEIGHT>
367.52762

> <PUBCHEM_OPENEYE_CAN_SMILES>
CC[NH+](CC)CC1=CC(=CC=C1)NC(=O)C2=CC(=CC=C2)C[NH+]3CCCC3

> <PUBCHEM_OPENEYE_ISO_SMILES>
CC[NH+](CC)CC1=CC(=CC=C1)NC(=O)C2=CC(=CC=C2)C[NH+]3CCCC3

> <PUBCHEM_CACTVS_TPSA>
38

> <PUBCHEM_MONOISOTOPIC_WEIGHT>
367.262363

> <PUBCHEM_TOTAL_CHARGE>
2

> <PUBCHEM_HEAVY_ATOM_COUNT>
27

> <PUBCHEM_ATOM_DEF_STEREO_COUNT>
0

> <PUBCHEM_ATOM_UDEF_STEREO_COUNT>
0

> <PUBCHEM_BOND_DEF_STEREO_COUNT>
0

> <PUBCHEM_BOND_UDEF_STEREO_COUNT>
0

> <PUBCHEM_ISOTOPIC_ATOM_COUNT>
0

> <PUBCHEM_COMPONENT_COUNT>
1

> <PUBCHEM_CACTVS_TAUTO_COUNT>
2

> <PUBCHEM_COORDINATE_TYPE>
1
5
255

> <PUBCHEM_BONDANNOTATIONS>
10  11  8
10  12  8
11  16  8
12  17  8
16  19  8
17  19  8
18  23  8
18  25  8
23  24  8
24  26  8
25  27  8
26  27  8

$$$$
