8284708
  -OEChem-11301217052D

 31 32  0     0  0  0  0  0  0999 V2000
    2.0000   -1.3512    0.0000 F   0  0  0  0  0  0  0  0  0  0  0  0
    5.4641   -1.3512    0.0000 F   0  0  0  0  0  0  0  0  0  0  0  0
    5.4641   -3.3512    0.0000 F   0  0  0  0  0  0  0  0  0  0  0  0
    2.0000   -3.3512    0.0000 F   0  0  0  0  0  0  0  0  0  0  0  0
    3.7320   -4.3512    0.0000 F   0  0  0  0  0  0  0  0  0  0  0  0
    4.5981    0.1488    0.0000 O   0  0  0  0  0  0  0  0  0  0  0  0
    7.2437    2.7420    0.0000 O   0  0  0  0  0  0  0  0  0  0  0  0
    3.7320    1.6488    0.0000 O   0  0  0  0  0  0  0  0  0  0  0  0
    9.4951    4.1897    0.0000 O   0  5  0  0  0  0  0  0  0  0  0  0
    9.3141    2.4671    0.0000 O   0  0  0  0  0  0  0  0  0  0  0  0
    8.9073    3.3807    0.0000 N   0  3  0  0  0  0  0  0  0  0  0  0
    3.7320   -1.3512    0.0000 C   0  0  0  0  0  0  0  0  0  0  0  0
    3.7320   -0.3512    0.0000 C   0  0  0  0  0  0  0  0  0  0  0  0
    2.8660   -1.8512    0.0000 C   0  0  0  0  0  0  0  0  0  0  0  0
    4.5981   -1.8512    0.0000 C   0  0  0  0  0  0  0  0  0  0  0  0
    4.5981   -2.8512    0.0000 C   0  0  0  0  0  0  0  0  0  0  0  0
    2.8660   -2.8512    0.0000 C   0  0  0  0  0  0  0  0  0  0  0  0
    3.7320   -3.3512    0.0000 C   0  0  0  0  0  0  0  0  0  0  0  0
    6.3301    3.1488    0.0000 C   0  0  0  0  0  0  0  0  0  0  0  0
    4.5981    1.1488    0.0000 C   0  0  0  0  0  0  0  0  0  0  0  0
    5.4641    2.6488    0.0000 C   0  0  0  0  0  0  0  0  0  0  0  0
    5.4641    1.6488    0.0000 C   0  0  0  0  0  0  0  0  0  0  0  0
    6.4347    4.1433    0.0000 C   0  0  0  0  0  0  0  0  0  0  0  0
    7.9128    3.4852    0.0000 C   0  0  0  0  0  0  0  0  0  0  0  0
    7.4128    4.3512    0.0000 C   0  0  0  0  0  0  0  0  0  0  0  0
    3.5200    0.2314    0.0000 H   0  0  0  0  0  0  0  0  0  0  0  0
    3.1215   -0.4589    0.0000 H   0  0  0  0  0  0  0  0  0  0  0  0
    4.9272    2.9588    0.0000 H   0  0  0  0  0  0  0  0  0  0  0  0
    5.9739    4.5582    0.0000 H   0  0  0  0  0  0  0  0  0  0  0  0
    6.0010    1.3388    0.0000 H   0  0  0  0  0  0  0  0  0  0  0  0
    7.6650    4.9176    0.0000 H   0  0  0  0  0  0  0  0  0  0  0  0
  1 14  1  0  0  0  0
  2 15  1  0  0  0  0
  3 16  1  0  0  0  0
  4 17  1  0  0  0  0
  5 18  1  0  0  0  0
  6 13  1  0  0  0  0
  6 20  1  0  0  0  0
  7 19  1  0  0  0  0
  7 24  1  0  0  0  0
  8 20  2  0  0  0  0
  9 11  1  0  0  0  0
 10 11  2  0  0  0  0
 11 24  1  0  0  0  0
 12 13  1  0  0  0  0
 12 14  2  0  0  0  0
 12 15  1  0  0  0  0
 13 26  1  0  0  0  0
 13 27  1  0  0  0  0
 14 17  1  0  0  0  0
 15 16  2  0  0  0  0
 16 18  1  0  0  0  0
 17 18  2  0  0  0  0
 19 21  1  0  0  0  0
 19 23  2  0  0  0  0
 20 22  1  0  0  0  0
 21 22  2  0  0  0  0
 21 28  1  0  0  0  0
 22 30  1  0  0  0  0
 23 25  1  0  0  0  0
 23 29  1  0  0  0  0
 24 25  2  0  0  0  0
 25 31  1  0  0  0  0
M  CHG  2   9  -1  11   1
M  END
> <PUBCHEM_COMPOUND_CID>
8284708

> <PUBCHEM_COMPOUND_CANONICALIZED>
1

> <PUBCHEM_CACTVS_COMPLEXITY>
514

> <PUBCHEM_CACTVS_HBOND_ACCEPTOR>
10

> <PUBCHEM_CACTVS_HBOND_DONOR>
0

> <PUBCHEM_CACTVS_ROTATABLE_BOND>
5

> <PUBCHEM_CACTVS_SUBSKEYS>
AAADcYByOcAAAAAAAAAAAAAAAAAAASAAAAAwAAAAAAAAAAABwAAAHwAEAAAADAShmAowjIAQRECJAqHSWwCCCAAsIgAoiAEGbMoMJjKEtZuKOSDkwBEI6Ye8wCAOAAAAAAAAAAAAAAAAAAAAAAAAAAAAAA==

> <PUBCHEM_IUPAC_OPENEYE_NAME>
(2,3,4,5,6-pentafluorophenyl)methyl (E)-3-(5-nitro-2-furyl)prop-2-enoate

> <PUBCHEM_IUPAC_CAS_NAME>
(E)-3-(5-nitro-2-furanyl)-2-propenoic acid (2,3,4,5,6-pentafluorophenyl)methyl ester

> <PUBCHEM_IUPAC_NAME>
(2,3,4,5,6-pentafluorophenyl)methyl (E)-3-(5-nitrofuran-2-yl)prop-2-enoate

> <PUBCHEM_IUPAC_SYSTEMATIC_NAME>
[2,3,4,5,6-pentakis(fluoranyl)phenyl]methyl (E)-3-(5-nitrofuran-2-yl)prop-2-enoate

> <PUBCHEM_IUPAC_TRADITIONAL_NAME>
(E)-3-(5-nitro-2-furyl)acrylic acid (2,3,4,5,6-pentafluorobenzyl) ester

> <PUBCHEM_IUPAC_INCHI>
InChI=1S/C14H6F5NO5/c15-10-7(11(16)13(18)14(19)12(10)17)5-24-9(21)4-2-6-1-3-8(25-6)20(22)23/h1-4H,5H2/b4-2+

> <PUBCHEM_IUPAC_INCHIKEY>
XIMSUVWEHYQYAB-DUXPYHPUSA-N

> <PUBCHEM_XLOGP3>
3.6

> <PUBCHEM_EXACT_MASS>
363.016613

> <PUBCHEM_MOLECULAR_FORMULA>
C14H6F5NO5

> <PUBCHEM_MOLECULAR_WEIGHT>
363.193156

> <PUBCHEM_OPENEYE_CAN_SMILES>
C1=C(OC(=C1)[N+](=O)[O-])C=CC(=O)OCC2=C(C(=C(C(=C2F)F)F)F)F

> <PUBCHEM_OPENEYE_ISO_SMILES>
C1=C(OC(=C1)[N+](=O)[O-])/C=C/C(=O)OCC2=C(C(=C(C(=C2F)F)F)F)F

> <PUBCHEM_CACTVS_TPSA>
85.3

> <PUBCHEM_MONOISOTOPIC_WEIGHT>
363.016613

> <PUBCHEM_TOTAL_CHARGE>
0

> <PUBCHEM_HEAVY_ATOM_COUNT>
25

> <PUBCHEM_ATOM_DEF_STEREO_COUNT>
0

> <PUBCHEM_ATOM_UDEF_STEREO_COUNT>
0

> <PUBCHEM_BOND_DEF_STEREO_COUNT>
1

> <PUBCHEM_BOND_UDEF_STEREO_COUNT>
0

> <PUBCHEM_ISOTOPIC_ATOM_COUNT>
0

> <PUBCHEM_COMPONENT_COUNT>
1

> <PUBCHEM_CACTVS_TAUTO_COUNT>
1

> <PUBCHEM_COORDINATE_TYPE>
1
5
255

> <PUBCHEM_BONDANNOTATIONS>
12  14  8
12  15  8
14  17  8
15  16  8
16  18  8
17  18  8
19  23  8
23  25  8
24  25  8
7  19  8
7  24  8

$$$$
