55848435
  -OEChem-11301218102D

 51 53  0     0  0  0  0  0  0999 V2000
    5.4641   -0.2500    0.0000 S   0  0  0  0  0  0  0  0  0  0  0  0
   14.1244    2.7500    0.0000 F   0  0  0  0  0  0  0  0  0  0  0  0
   13.2583    4.2500    0.0000 F   0  0  0  0  0  0  0  0  0  0  0  0
    4.9641    0.6160    0.0000 O   0  0  0  0  0  0  0  0  0  0  0  0
    5.9641   -1.1160    0.0000 O   0  0  0  0  0  0  0  0  0  0  0  0
    2.8660   -1.7500    0.0000 O   0  0  0  0  0  0  0  0  0  0  0  0
    9.7942    1.2500    0.0000 O   0  0  0  0  0  0  0  0  0  0  0  0
   12.3923    2.7500    0.0000 O   0  0  0  0  0  0  0  0  0  0  0  0
    6.3301   -4.7500    0.0000 O   0  5  0  0  0  0  0  0  0  0  0  0
    7.1962   -3.2500    0.0000 O   0  0  0  0  0  0  0  0  0  0  0  0
    4.5981   -0.7500    0.0000 N   0  0  0  0  0  0  0  0  0  0  0  0
    8.9282    2.7500    0.0000 N   0  0  0  0  0  0  0  0  0  0  0  0
    6.3301   -3.7500    0.0000 N   0  3  0  0  0  0  0  0  0  0  0  0
    6.3301    0.2500    0.0000 C   0  0  0  0  0  0  0  0  0  0  0  0
    4.5981   -1.7500    0.0000 C   0  0  0  0  0  0  0  0  0  0  0  0
    7.1962   -0.2500    0.0000 C   0  0  0  0  0  0  0  0  0  0  0  0
    6.3301    1.2500    0.0000 C   0  0  0  0  0  0  0  0  0  0  0  0
    8.0622    1.2500    0.0000 C   0  0  0  0  0  0  0  0  0  0  0  0
    8.0622    0.2500    0.0000 C   0  0  0  0  0  0  0  0  0  0  0  0
    7.1962    1.7500    0.0000 C   0  0  0  0  0  0  0  0  0  0  0  0
    3.7320   -2.2500    0.0000 C   0  0  0  0  0  0  0  0  0  0  0  0
    5.4641   -2.2500    0.0000 C   0  0  0  0  0  0  0  0  0  0  0  0
    5.4641   -3.2500    0.0000 C   0  0  0  0  0  0  0  0  0  0  0  0
    8.9282    1.7500    0.0000 C   0  0  0  0  0  0  0  0  0  0  0  0
    3.7320   -3.2500    0.0000 C   0  0  0  0  0  0  0  0  0  0  0  0
    4.5981   -3.7500    0.0000 C   0  0  0  0  0  0  0  0  0  0  0  0
    9.7942    3.2500    0.0000 C   0  0  0  0  0  0  0  0  0  0  0  0
   10.6603    2.7500    0.0000 C   0  0  0  0  0  0  0  0  0  0  0  0
    9.7942    4.2500    0.0000 C   0  0  0  0  0  0  0  0  0  0  0  0
   11.5263    3.2500    0.0000 C   0  0  0  0  0  0  0  0  0  0  0  0
   10.6603    4.7500    0.0000 C   0  0  0  0  0  0  0  0  0  0  0  0
   11.5263    4.2500    0.0000 C   0  0  0  0  0  0  0  0  0  0  0  0
    2.0000   -2.2500    0.0000 C   0  0  0  0  0  0  0  0  0  0  0  0
   13.2583    3.2500    0.0000 C   0  0  0  0  0  0  0  0  0  0  0  0
    4.0611   -0.4400    0.0000 H   0  0  0  0  0  0  0  0  0  0  0  0
    7.1962   -0.8700    0.0000 H   0  0  0  0  0  0  0  0  0  0  0  0
    5.7932    1.5600    0.0000 H   0  0  0  0  0  0  0  0  0  0  0  0
    8.5991   -0.0600    0.0000 H   0  0  0  0  0  0  0  0  0  0  0  0
    7.1962    2.3700    0.0000 H   0  0  0  0  0  0  0  0  0  0  0  0
    6.0010   -1.9400    0.0000 H   0  0  0  0  0  0  0  0  0  0  0  0
    3.1951   -3.5600    0.0000 H   0  0  0  0  0  0  0  0  0  0  0  0
    4.5981   -4.3700    0.0000 H   0  0  0  0  0  0  0  0  0  0  0  0
    8.3913    3.0600    0.0000 H   0  0  0  0  0  0  0  0  0  0  0  0
   10.6603    2.1300    0.0000 H   0  0  0  0  0  0  0  0  0  0  0  0
    9.2573    4.5600    0.0000 H   0  0  0  0  0  0  0  0  0  0  0  0
   10.6603    5.3700    0.0000 H   0  0  0  0  0  0  0  0  0  0  0  0
   12.0632    4.5600    0.0000 H   0  0  0  0  0  0  0  0  0  0  0  0
    1.6900   -1.7131    0.0000 H   0  0  0  0  0  0  0  0  0  0  0  0
    1.4631   -2.5600    0.0000 H   0  0  0  0  0  0  0  0  0  0  0  0
    2.3100   -2.7869    0.0000 H   0  0  0  0  0  0  0  0  0  0  0  0
   13.2583    2.6300    0.0000 H   0  0  0  0  0  0  0  0  0  0  0  0
  1  4  2  0  0  0  0
  1  5  2  0  0  0  0
  1 11  1  0  0  0  0
  1 14  1  0  0  0  0
  2 34  1  0  0  0  0
  3 34  1  0  0  0  0
  6 21  1  0  0  0  0
  6 33  1  0  0  0  0
  7 24  2  0  0  0  0
  8 30  1  0  0  0  0
  8 34  1  0  0  0  0
  9 13  1  0  0  0  0
 10 13  2  0  0  0  0
 11 15  1  0  0  0  0
 11 35  1  0  0  0  0
 12 24  1  0  0  0  0
 12 27  1  0  0  0  0
 12 43  1  0  0  0  0
 13 23  1  0  0  0  0
 14 16  2  0  0  0  0
 14 17  1  0  0  0  0
 15 21  2  0  0  0  0
 15 22  1  0  0  0  0
 16 19  1  0  0  0  0
 16 36  1  0  0  0  0
 17 20  2  0  0  0  0
 17 37  1  0  0  0  0
 18 19  2  0  0  0  0
 18 20  1  0  0  0  0
 18 24  1  0  0  0  0
 19 38  1  0  0  0  0
 20 39  1  0  0  0  0
 21 25  1  0  0  0  0
 22 23  2  0  0  0  0
 22 40  1  0  0  0  0
 23 26  1  0  0  0  0
 25 26  2  0  0  0  0
 25 41  1  0  0  0  0
 26 42  1  0  0  0  0
 27 28  2  0  0  0  0
 27 29  1  0  0  0  0
 28 30  1  0  0  0  0
 28 44  1  0  0  0  0
 29 31  2  0  0  0  0
 29 45  1  0  0  0  0
 30 32  2  0  0  0  0
 31 32  1  0  0  0  0
 31 46  1  0  0  0  0
 32 47  1  0  0  0  0
 33 48  1  0  0  0  0
 33 49  1  0  0  0  0
 33 50  1  0  0  0  0
 34 51  1  0  0  0  0
M  CHG  2   9  -1  13   1
M  END
> <PUBCHEM_COMPOUND_CID>
55848435

> <PUBCHEM_COMPOUND_CANONICALIZED>
1

> <PUBCHEM_CACTVS_COMPLEXITY>
797

> <PUBCHEM_CACTVS_HBOND_ACCEPTOR>
10

> <PUBCHEM_CACTVS_HBOND_DONOR>
2

> <PUBCHEM_CACTVS_ROTATABLE_BOND>
8

> <PUBCHEM_CACTVS_SUBSKEYS>
AAADceB7OYBAAAAAAAAAAAAAAAAAAAAAAAAwYMAAAAAAAAABUAAAHwQUQAAADAyB2BIyx4LQRAKJAiVSU3DCCBAlIgAoiBkHbMoOJjLE9duFMShm1BnI6Ye42AOOEEAAAgQAEAAggAAECAAgAAAAAAAAAA==

> <PUBCHEM_IUPAC_OPENEYE_NAME>
N-[3-(difluoromethoxy)phenyl]-4-[(2-methoxy-5-nitro-phenyl)sulfamoyl]benzamide

> <PUBCHEM_IUPAC_CAS_NAME>
N-[3-(difluoromethoxy)phenyl]-4-[(2-methoxy-5-nitrophenyl)sulfamoyl]benzamide

> <PUBCHEM_IUPAC_NAME>
N-[3-(difluoromethoxy)phenyl]-4-[(2-methoxy-5-nitrophenyl)sulfamoyl]benzamide

> <PUBCHEM_IUPAC_SYSTEMATIC_NAME>
N-[3-[bis(fluoranyl)methoxy]phenyl]-4-[(2-methoxy-5-nitro-phenyl)sulfamoyl]benzamide

> <PUBCHEM_IUPAC_TRADITIONAL_NAME>
N-[3-(difluoromethoxy)phenyl]-4-[(2-methoxy-5-nitro-phenyl)sulfamoyl]benzamide

> <PUBCHEM_IUPAC_INCHI>
InChI=1S/C21H17F2N3O7S/c1-32-19-10-7-15(26(28)29)12-18(19)25-34(30,31)17-8-5-13(6-9-17)20(27)24-14-3-2-4-16(11-14)33-21(22)23/h2-12,21,25H,1H3,(H,24,27)

> <PUBCHEM_IUPAC_INCHIKEY>
SDCABHVZEWBWOE-UHFFFAOYSA-N

> <PUBCHEM_XLOGP3>
3.8

> <PUBCHEM_EXACT_MASS>
493.075527

> <PUBCHEM_MOLECULAR_FORMULA>
C21H17F2N3O7S

> <PUBCHEM_MOLECULAR_WEIGHT>
493.437386

> <PUBCHEM_OPENEYE_CAN_SMILES>
COC1=C(C=C(C=C1)[N+](=O)[O-])NS(=O)(=O)C2=CC=C(C=C2)C(=O)NC3=CC(=CC=C3)OC(F)F

> <PUBCHEM_OPENEYE_ISO_SMILES>
COC1=C(C=C(C=C1)[N+](=O)[O-])NS(=O)(=O)C2=CC=C(C=C2)C(=O)NC3=CC(=CC=C3)OC(F)F

> <PUBCHEM_CACTVS_TPSA>
148

> <PUBCHEM_MONOISOTOPIC_WEIGHT>
493.075527

> <PUBCHEM_TOTAL_CHARGE>
0

> <PUBCHEM_HEAVY_ATOM_COUNT>
34

> <PUBCHEM_ATOM_DEF_STEREO_COUNT>
0

> <PUBCHEM_ATOM_UDEF_STEREO_COUNT>
0

> <PUBCHEM_BOND_DEF_STEREO_COUNT>
0

> <PUBCHEM_BOND_UDEF_STEREO_COUNT>
0

> <PUBCHEM_ISOTOPIC_ATOM_COUNT>
0

> <PUBCHEM_COMPONENT_COUNT>
1

> <PUBCHEM_CACTVS_TAUTO_COUNT>
2

> <PUBCHEM_COORDINATE_TYPE>
1
5
255

> <PUBCHEM_BONDANNOTATIONS>
14  16  8
14  17  8
15  21  8
15  22  8
16  19  8
17  20  8
18  19  8
18  20  8
21  25  8
22  23  8
23  26  8
25  26  8
27  28  8
27  29  8
28  30  8
29  31  8
30  32  8
31  32  8

$$$$
