65971234
  -OEChem-11301218282D

 27 28  0     0  0  0  0  0  0999 V2000
    4.5981    3.9571    0.0000 Cl  0  0  0  0  0  0  0  0  0  0  0  0
    2.0000   -0.9571    0.0000 Cl  0  0  0  0  0  0  0  0  0  0  0  0
    3.7320   -3.9571    0.0000 Cl  0  0  0  0  0  0  0  0  0  0  0  0
    4.5981    0.5429    0.0000 N   0  0  0  0  0  0  0  0  0  0  0  0
    4.5981    1.5429    0.0000 C   0  0  0  0  0  0  0  0  0  0  0  0
    3.8910    2.2500    0.0000 C   0  0  0  0  0  0  0  0  0  0  0  0
    5.3052    2.2500    0.0000 C   0  0  0  0  0  0  0  0  0  0  0  0
    4.5981    2.9571    0.0000 C   0  0  0  0  0  0  0  0  0  0  0  0
    3.7320    0.0429    0.0000 C   0  0  0  0  0  0  0  0  0  0  0  0
    3.7320   -0.9571    0.0000 C   0  0  0  0  0  0  0  0  0  0  0  0
    2.8660   -1.4571    0.0000 C   0  0  0  0  0  0  0  0  0  0  0  0
    4.5981   -1.4571    0.0000 C   0  0  0  0  0  0  0  0  0  0  0  0
    2.8660   -2.4571    0.0000 C   0  0  0  0  0  0  0  0  0  0  0  0
    4.5981   -2.4571    0.0000 C   0  0  0  0  0  0  0  0  0  0  0  0
    3.7320   -2.9571    0.0000 C   0  0  0  0  0  0  0  0  0  0  0  0
    5.1709    1.3056    0.0000 H   0  0  0  0  0  0  0  0  0  0  0  0
    3.4526    2.6884    0.0000 H   0  0  0  0  0  0  0  0  0  0  0  0
    3.4526    1.8116    0.0000 H   0  0  0  0  0  0  0  0  0  0  0  0
    5.7436    1.8116    0.0000 H   0  0  0  0  0  0  0  0  0  0  0  0
    5.7436    2.6884    0.0000 H   0  0  0  0  0  0  0  0  0  0  0  0
    5.1709    3.1944    0.0000 H   0  0  0  0  0  0  0  0  0  0  0  0
    5.1350    0.2329    0.0000 H   0  0  0  0  0  0  0  0  0  0  0  0
    3.5200    0.6255    0.0000 H   0  0  0  0  0  0  0  0  0  0  0  0
    3.1215   -0.0648    0.0000 H   0  0  0  0  0  0  0  0  0  0  0  0
    5.1350   -1.1471    0.0000 H   0  0  0  0  0  0  0  0  0  0  0  0
    2.3291   -2.7671    0.0000 H   0  0  0  0  0  0  0  0  0  0  0  0
    5.1350   -2.7671    0.0000 H   0  0  0  0  0  0  0  0  0  0  0  0
  1  8  1  0  0  0  0
  2 11  1  0  0  0  0
  3 15  1  0  0  0  0
  4  5  1  0  0  0  0
  4  9  1  0  0  0  0
  4 22  1  0  0  0  0
  5  6  1  0  0  0  0
  5  7  1  0  0  0  0
  5 16  1  0  0  0  0
  6  8  1  0  0  0  0
  6 17  1  0  0  0  0
  6 18  1  0  0  0  0
  7  8  1  0  0  0  0
  7 19  1  0  0  0  0
  7 20  1  0  0  0  0
  8 21  1  0  0  0  0
  9 10  1  0  0  0  0
  9 23  1  0  0  0  0
  9 24  1  0  0  0  0
 10 11  2  0  0  0  0
 10 12  1  0  0  0  0
 11 13  1  0  0  0  0
 12 14  2  0  0  0  0
 12 25  1  0  0  0  0
 13 15  2  0  0  0  0
 13 26  1  0  0  0  0
 14 15  1  0  0  0  0
 14 27  1  0  0  0  0
M  END
> <PUBCHEM_COMPOUND_CID>
65971234

> <PUBCHEM_COMPOUND_CANONICALIZED>
1

> <PUBCHEM_CACTVS_COMPLEXITY>
206

> <PUBCHEM_CACTVS_HBOND_ACCEPTOR>
1

> <PUBCHEM_CACTVS_HBOND_DONOR>
1

> <PUBCHEM_CACTVS_ROTATABLE_BOND>
3

> <PUBCHEM_CACTVS_SUBSKEYS>
AAADccByAAAGAAAAAAAAAAAAAABgAAAAAAAwAAAAAAAAAAABAAAAHAIQAAAADCvBGGQwAILAAACAAiBCAACCAAAgBQAIiIAIBogIICKBkxGEIAhgkACIiAcQgAAOBAAAAACBAAAIAAAAAQIAAAAAAAAAAA==

> <PUBCHEM_IUPAC_OPENEYE_NAME>
3-chloro-N-[(2,4-dichlorophenyl)methyl]cyclobutanamine

> <PUBCHEM_IUPAC_CAS_NAME>
3-chloro-N-[(2,4-dichlorophenyl)methyl]-1-cyclobutanamine

> <PUBCHEM_IUPAC_NAME>
3-chloro-N-[(2,4-dichlorophenyl)methyl]cyclobutan-1-amine

> <PUBCHEM_IUPAC_SYSTEMATIC_NAME>
3-chloranyl-N-[(2,4-dichlorophenyl)methyl]cyclobutan-1-amine

> <PUBCHEM_IUPAC_TRADITIONAL_NAME>
(3-chlorocyclobutyl)-(2,4-dichlorobenzyl)amine

> <PUBCHEM_IUPAC_INCHI>
InChI=1S/C11H12Cl3N/c12-8-2-1-7(11(14)5-8)6-15-10-3-9(13)4-10/h1-2,5,9-10,15H,3-4,6H2

> <PUBCHEM_IUPAC_INCHIKEY>
PXPARBZKXYLOEG-UHFFFAOYSA-N

> <PUBCHEM_XLOGP3>
4

> <PUBCHEM_EXACT_MASS>
263.003532

> <PUBCHEM_MOLECULAR_FORMULA>
C11H12Cl3N

> <PUBCHEM_MOLECULAR_WEIGHT>
264.57868

> <PUBCHEM_OPENEYE_CAN_SMILES>
C1C(CC1Cl)NCC2=C(C=C(C=C2)Cl)Cl

> <PUBCHEM_OPENEYE_ISO_SMILES>
C1C(CC1Cl)NCC2=C(C=C(C=C2)Cl)Cl

> <PUBCHEM_CACTVS_TPSA>
12

> <PUBCHEM_MONOISOTOPIC_WEIGHT>
263.003532

> <PUBCHEM_TOTAL_CHARGE>
0

> <PUBCHEM_HEAVY_ATOM_COUNT>
15

> <PUBCHEM_ATOM_DEF_STEREO_COUNT>
0

> <PUBCHEM_ATOM_UDEF_STEREO_COUNT>
0

> <PUBCHEM_BOND_DEF_STEREO_COUNT>
0

> <PUBCHEM_BOND_UDEF_STEREO_COUNT>
0

> <PUBCHEM_ISOTOPIC_ATOM_COUNT>
0

> <PUBCHEM_COMPONENT_COUNT>
1

> <PUBCHEM_CACTVS_TAUTO_COUNT>
1

> <PUBCHEM_COORDINATE_TYPE>
1
5
255

> <PUBCHEM_BONDANNOTATIONS>
10  11  8
10  12  8
11  13  8
12  14  8
13  15  8
14  15  8

$$$$
65972788
  -OEChem-11301218282D

 27 28  0     0  0  0  0  0  0999 V2000
    4.5981    3.4571    0.0000 Cl  0  0  0  0  0  0  0  0  0  0  0  0
    2.0000   -3.4571    0.0000 Cl  0  0  0  0  0  0  0  0  0  0  0  0
    4.5981    0.0429    0.0000 N   0  0  0  0  0  0  0  0  0  0  0  0
    4.5981    1.0429    0.0000 C   0  0  0  0  0  0  0  0  0  0  0  0
    3.8910    1.7500    0.0000 C   0  0  0  0  0  0  0  0  0  0  0  0
    5.3052    1.7500    0.0000 C   0  0  0  0  0  0  0  0  0  0  0  0
    4.5981    2.4571    0.0000 C   0  0  0  0  0  0  0  0  0  0  0  0
    3.7320   -0.4571    0.0000 C   0  0  0  0  0  0  0  0  0  0  0  0
    3.7320   -1.4571    0.0000 C   0  0  0  0  0  0  0  0  0  0  0  0
    2.8660   -1.9571    0.0000 C   0  0  0  0  0  0  0  0  0  0  0  0
    4.5981   -1.9571    0.0000 C   0  0  0  0  0  0  0  0  0  0  0  0
    2.8660   -2.9571    0.0000 C   0  0  0  0  0  0  0  0  0  0  0  0
    4.5981   -2.9571    0.0000 C   0  0  0  0  0  0  0  0  0  0  0  0
    3.7320   -3.4571    0.0000 C   0  0  0  0  0  0  0  0  0  0  0  0
    5.1709    0.8056    0.0000 H   0  0  0  0  0  0  0  0  0  0  0  0
    3.4526    2.1884    0.0000 H   0  0  0  0  0  0  0  0  0  0  0  0
    3.4526    1.3116    0.0000 H   0  0  0  0  0  0  0  0  0  0  0  0
    5.7436    1.3116    0.0000 H   0  0  0  0  0  0  0  0  0  0  0  0
    5.7436    2.1884    0.0000 H   0  0  0  0  0  0  0  0  0  0  0  0
    5.1709    2.6944    0.0000 H   0  0  0  0  0  0  0  0  0  0  0  0
    5.1350   -0.2671    0.0000 H   0  0  0  0  0  0  0  0  0  0  0  0
    3.5200    0.1255    0.0000 H   0  0  0  0  0  0  0  0  0  0  0  0
    3.1215   -0.5648    0.0000 H   0  0  0  0  0  0  0  0  0  0  0  0
    2.3291   -1.6471    0.0000 H   0  0  0  0  0  0  0  0  0  0  0  0
    5.1350   -1.6471    0.0000 H   0  0  0  0  0  0  0  0  0  0  0  0
    5.1350   -3.2671    0.0000 H   0  0  0  0  0  0  0  0  0  0  0  0
    3.7320   -4.0771    0.0000 H   0  0  0  0  0  0  0  0  0  0  0  0
  1  7  1  0  0  0  0
  2 12  1  0  0  0  0
  3  4  1  0  0  0  0
  3  8  1  0  0  0  0
  3 21  1  0  0  0  0
  4  5  1  0  0  0  0
  4  6  1  0  0  0  0
  4 15  1  0  0  0  0
  5  7  1  0  0  0  0
  5 16  1  0  0  0  0
  5 17  1  0  0  0  0
  6  7  1  0  0  0  0
  6 18  1  0  0  0  0
  6 19  1  0  0  0  0
  7 20  1  0  0  0  0
  8  9  1  0  0  0  0
  8 22  1  0  0  0  0
  8 23  1  0  0  0  0
  9 10  2  0  0  0  0
  9 11  1  0  0  0  0
 10 12  1  0  0  0  0
 10 24  1  0  0  0  0
 11 13  2  0  0  0  0
 11 25  1  0  0  0  0
 12 14  2  0  0  0  0
 13 14  1  0  0  0  0
 13 26  1  0  0  0  0
 14 27  1  0  0  0  0
M  END
> <PUBCHEM_COMPOUND_CID>
65972788

> <PUBCHEM_COMPOUND_CANONICALIZED>
1

> <PUBCHEM_CACTVS_COMPLEXITY>
180

> <PUBCHEM_CACTVS_HBOND_ACCEPTOR>
1

> <PUBCHEM_CACTVS_HBOND_DONOR>
1

> <PUBCHEM_CACTVS_ROTATABLE_BOND>
3

> <PUBCHEM_CACTVS_SUBSKEYS>
AAADccByAAAGAAAAAAAAAAAAAABgAAAAAAAwAAAAAAAAAAABAAAAHAIQAAAADCvBGGQwAILAAACAAiBCAACCAAAgBQAIiIAIBogIICKBkxGEIAhgkACIiAcQgAAOAAAAIAAAAAAAAABAAAAAAAAAAAAAAA==

> <PUBCHEM_IUPAC_OPENEYE_NAME>
3-chloro-N-[(3-chlorophenyl)methyl]cyclobutanamine

> <PUBCHEM_IUPAC_CAS_NAME>
3-chloro-N-[(3-chlorophenyl)methyl]-1-cyclobutanamine

> <PUBCHEM_IUPAC_NAME>
3-chloro-N-[(3-chlorophenyl)methyl]cyclobutan-1-amine

> <PUBCHEM_IUPAC_SYSTEMATIC_NAME>
3-chloranyl-N-[(3-chlorophenyl)methyl]cyclobutan-1-amine

> <PUBCHEM_IUPAC_TRADITIONAL_NAME>
(3-chlorobenzyl)-(3-chlorocyclobutyl)amine

> <PUBCHEM_IUPAC_INCHI>
InChI=1S/C11H13Cl2N/c12-9-3-1-2-8(4-9)7-14-11-5-10(13)6-11/h1-4,10-11,14H,5-7H2

> <PUBCHEM_IUPAC_INCHIKEY>
HZBGVYIRPASTLH-UHFFFAOYSA-N

> <PUBCHEM_XLOGP3>
3.4

> <PUBCHEM_EXACT_MASS>
229.042505

> <PUBCHEM_MOLECULAR_FORMULA>
C11H13Cl2N

> <PUBCHEM_MOLECULAR_WEIGHT>
230.13362

> <PUBCHEM_OPENEYE_CAN_SMILES>
C1C(CC1Cl)NCC2=CC(=CC=C2)Cl

> <PUBCHEM_OPENEYE_ISO_SMILES>
C1C(CC1Cl)NCC2=CC(=CC=C2)Cl

> <PUBCHEM_CACTVS_TPSA>
12

> <PUBCHEM_MONOISOTOPIC_WEIGHT>
229.042505

> <PUBCHEM_TOTAL_CHARGE>
0

> <PUBCHEM_HEAVY_ATOM_COUNT>
14

> <PUBCHEM_ATOM_DEF_STEREO_COUNT>
0

> <PUBCHEM_ATOM_UDEF_STEREO_COUNT>
0

> <PUBCHEM_BOND_DEF_STEREO_COUNT>
0

> <PUBCHEM_BOND_UDEF_STEREO_COUNT>
0

> <PUBCHEM_ISOTOPIC_ATOM_COUNT>
0

> <PUBCHEM_COMPONENT_COUNT>
1

> <PUBCHEM_CACTVS_TAUTO_COUNT>
1

> <PUBCHEM_COORDINATE_TYPE>
1
5
255

> <PUBCHEM_BONDANNOTATIONS>
10  12  8
11  13  8
12  14  8
13  14  8
9  10  8
9  11  8

$$$$
65973247
  -OEChem-11301218282D

 33 35  0     0  0  0  0  0  0999 V2000
    2.7071   -3.4744    0.0000 Cl  0  0  0  0  0  0  0  0  0  0  0  0
    2.7071   -0.0602    0.0000 N   0  0  0  0  0  0  0  0  0  0  0  0
    2.7071   -1.0602    0.0000 C   0  0  0  0  0  0  0  0  0  0  0  0
    3.4142   -1.7673    0.0000 C   0  0  0  0  0  0  0  0  0  0  0  0
    2.0000   -1.7673    0.0000 C   0  0  0  0  0  0  0  0  0  0  0  0
    2.7071   -2.4744    0.0000 C   0  0  0  0  0  0  0  0  0  0  0  0
    3.5731    0.4398    0.0000 C   0  0  0  0  0  0  0  0  0  0  0  0
    3.5731    1.4398    0.0000 C   0  0  0  0  0  0  0  0  0  0  0  0
    4.4392    1.9398    0.0000 C   0  0  0  0  0  0  0  0  0  0  0  0
    2.7071    1.9398    0.0000 C   0  0  0  0  0  0  0  0  0  0  0  0
    4.4392    2.9398    0.0000 C   0  0  0  0  0  0  0  0  0  0  0  0
    5.3331    1.4051    0.0000 C   0  0  0  0  0  0  0  0  0  0  0  0
    2.7071    2.9398    0.0000 C   0  0  0  0  0  0  0  0  0  0  0  0
    3.5731    3.4398    0.0000 C   0  0  0  0  0  0  0  0  0  0  0  0
    5.3331    3.4744    0.0000 C   0  0  0  0  0  0  0  0  0  0  0  0
    6.2392    1.9190    0.0000 C   0  0  0  0  0  0  0  0  0  0  0  0
    6.2392    2.9606    0.0000 C   0  0  0  0  0  0  0  0  0  0  0  0
    3.2799   -0.8230    0.0000 H   0  0  0  0  0  0  0  0  0  0  0  0
    3.8526   -2.2057    0.0000 H   0  0  0  0  0  0  0  0  0  0  0  0
    3.8526   -1.3289    0.0000 H   0  0  0  0  0  0  0  0  0  0  0  0
    1.5616   -1.3289    0.0000 H   0  0  0  0  0  0  0  0  0  0  0  0
    1.5616   -2.2057    0.0000 H   0  0  0  0  0  0  0  0  0  0  0  0
    3.2799   -2.7117    0.0000 H   0  0  0  0  0  0  0  0  0  0  0  0
    2.1702    0.2498    0.0000 H   0  0  0  0  0  0  0  0  0  0  0  0
    3.7852   -0.1428    0.0000 H   0  0  0  0  0  0  0  0  0  0  0  0
    4.1837    0.5474    0.0000 H   0  0  0  0  0  0  0  0  0  0  0  0
    2.1702    1.6298    0.0000 H   0  0  0  0  0  0  0  0  0  0  0  0
    5.3259    0.7852    0.0000 H   0  0  0  0  0  0  0  0  0  0  0  0
    2.1702    3.2498    0.0000 H   0  0  0  0  0  0  0  0  0  0  0  0
    3.5731    4.0598    0.0000 H   0  0  0  0  0  0  0  0  0  0  0  0
    5.3259    4.0944    0.0000 H   0  0  0  0  0  0  0  0  0  0  0  0
    6.7749    1.6069    0.0000 H   0  0  0  0  0  0  0  0  0  0  0  0
    6.7749    3.2727    0.0000 H   0  0  0  0  0  0  0  0  0  0  0  0
  1  6  1  0  0  0  0
  2  3  1  0  0  0  0
  2  7  1  0  0  0  0
  2 24  1  0  0  0  0
  3  4  1  0  0  0  0
  3  5  1  0  0  0  0
  3 18  1  0  0  0  0
  4  6  1  0  0  0  0
  4 19  1  0  0  0  0
  4 20  1  0  0  0  0
  5  6  1  0  0  0  0
  5 21  1  0  0  0  0
  5 22  1  0  0  0  0
  6 23  1  0  0  0  0
  7  8  1  0  0  0  0
  7 25  1  0  0  0  0
  7 26  1  0  0  0  0
  8  9  1  0  0  0  0
  8 10  2  0  0  0  0
  9 11  1  0  0  0  0
  9 12  2  0  0  0  0
 10 13  1  0  0  0  0
 10 27  1  0  0  0  0
 11 14  1  0  0  0  0
 11 15  2  0  0  0  0
 12 16  1  0  0  0  0
 12 28  1  0  0  0  0
 13 14  2  0  0  0  0
 13 29  1  0  0  0  0
 14 30  1  0  0  0  0
 15 17  1  0  0  0  0
 15 31  1  0  0  0  0
 16 17  2  0  0  0  0
 16 32  1  0  0  0  0
 17 33  1  0  0  0  0
M  END
> <PUBCHEM_COMPOUND_CID>
65973247

> <PUBCHEM_COMPOUND_CANONICALIZED>
1

> <PUBCHEM_CACTVS_COMPLEXITY>
249

> <PUBCHEM_CACTVS_HBOND_ACCEPTOR>
1

> <PUBCHEM_CACTVS_HBOND_DONOR>
1

> <PUBCHEM_CACTVS_ROTATABLE_BOND>
3

> <PUBCHEM_CACTVS_SUBSKEYS>
AAADceByAAAEAAAAAAAAAAAAAABgAAAAAAAwYAAAAAAAAADBUAAAHAIQAAAADCvBGEQwAMLAAACAAiBCAACCAAAgAAAIiIAIBogIICKBkRGEIAhgkACIiAcQgMAOgAACAAAQAAAAAAQAACAAAAAAAAAAAA==

> <PUBCHEM_IUPAC_OPENEYE_NAME>
3-chloro-N-(1-naphthylmethyl)cyclobutanamine

> <PUBCHEM_IUPAC_CAS_NAME>
3-chloro-N-(1-naphthalenylmethyl)-1-cyclobutanamine

> <PUBCHEM_IUPAC_NAME>
3-chloro-N-(naphthalen-1-ylmethyl)cyclobutan-1-amine

> <PUBCHEM_IUPAC_SYSTEMATIC_NAME>
3-chloranyl-N-(naphthalen-1-ylmethyl)cyclobutan-1-amine

> <PUBCHEM_IUPAC_TRADITIONAL_NAME>
(3-chlorocyclobutyl)-(1-naphthylmethyl)amine

> <PUBCHEM_IUPAC_INCHI>
InChI=1S/C15H16ClN/c16-13-8-14(9-13)17-10-12-6-3-5-11-4-1-2-7-15(11)12/h1-7,13-14,17H,8-10H2

> <PUBCHEM_IUPAC_INCHIKEY>
SOSVBODMCJIIAR-UHFFFAOYSA-N

> <PUBCHEM_XLOGP3>
3.9

> <PUBCHEM_EXACT_MASS>
245.097127

> <PUBCHEM_MOLECULAR_FORMULA>
C15H16ClN

> <PUBCHEM_MOLECULAR_WEIGHT>
245.74724

> <PUBCHEM_OPENEYE_CAN_SMILES>
C1C(CC1Cl)NCC2=CC=CC3=CC=CC=C32

> <PUBCHEM_OPENEYE_ISO_SMILES>
C1C(CC1Cl)NCC2=CC=CC3=CC=CC=C32

> <PUBCHEM_CACTVS_TPSA>
12

> <PUBCHEM_MONOISOTOPIC_WEIGHT>
245.097127

> <PUBCHEM_TOTAL_CHARGE>
0

> <PUBCHEM_HEAVY_ATOM_COUNT>
17

> <PUBCHEM_ATOM_DEF_STEREO_COUNT>
0

> <PUBCHEM_ATOM_UDEF_STEREO_COUNT>
0

> <PUBCHEM_BOND_DEF_STEREO_COUNT>
0

> <PUBCHEM_BOND_UDEF_STEREO_COUNT>
0

> <PUBCHEM_ISOTOPIC_ATOM_COUNT>
0

> <PUBCHEM_COMPONENT_COUNT>
1

> <PUBCHEM_CACTVS_TAUTO_COUNT>
1

> <PUBCHEM_COORDINATE_TYPE>
1
5
255

> <PUBCHEM_BONDANNOTATIONS>
10  13  8
11  14  8
11  15  8
12  16  8
13  14  8
15  17  8
16  17  8
8  10  8
8  9  8
9  11  8
9  12  8

$$$$
