48194196
  -OEChem-12041212122D

 45 47  0     1  0  0  0  0  0999 V2000
    5.6103    1.4718    0.0000 O   0  0  0  0  0  0  0  0  0  0  0  0
    7.2566    0.9337    0.0000 N   0  0  0  0  0  0  0  0  0  0  0  0
    4.6783   -2.9893    0.0000 N   0  0  0  0  0  0  0  0  0  0  0  0
    7.6649    1.8465    0.0000 C   0  0  3  0  0  0  0  0  0  0  0  0
    8.6593    1.7403    0.0000 C   0  0  0  0  0  0  0  0  0  0  0  0
    7.1664    2.7134    0.0000 C   0  0  0  0  0  0  0  0  0  0  0  0
    8.8655    0.7618    0.0000 C   0  0  0  0  0  0  0  0  0  0  0  0
    7.9986    0.2633    0.0000 C   0  0  0  0  0  0  0  0  0  0  0  0
    6.2781    0.7275    0.0000 C   0  0  0  0  0  0  0  0  0  0  0  0
    7.6679    3.5786    0.0000 C   0  0  0  0  0  0  0  0  0  0  0  0
    6.1664    2.7152    0.0000 C   0  0  0  0  0  0  0  0  0  0  0  0
    5.9674   -0.2231    0.0000 C   0  0  0  0  0  0  0  0  0  0  0  0
    4.9889   -0.4293    0.0000 C   0  0  0  0  0  0  0  0  0  0  0  0
    4.6783   -1.3798    0.0000 C   0  0  0  0  0  0  0  0  0  0  0  0
    3.7320   -1.6845    0.0000 C   0  0  0  0  0  0  0  0  0  0  0  0
    5.2619   -2.1845    0.0000 C   0  0  0  0  0  0  0  0  0  0  0  0
    3.7320   -2.6845    0.0000 C   0  0  0  0  0  0  0  0  0  0  0  0
    2.8660   -1.1845    0.0000 C   0  0  0  0  0  0  0  0  0  0  0  0
    2.8660   -3.1845    0.0000 C   0  0  0  0  0  0  0  0  0  0  0  0
    2.0000   -1.6845    0.0000 C   0  0  0  0  0  0  0  0  0  0  0  0
    2.0000   -2.6845    0.0000 C   0  0  0  0  0  0  0  0  0  0  0  0
    7.0457    1.8152    0.0000 H   0  0  0  0  0  0  0  0  0  0  0  0
    9.2760    1.8040    0.0000 H   0  0  0  0  0  0  0  0  0  0  0  0
    8.6603    2.3603    0.0000 H   0  0  0  0  0  0  0  0  0  0  0  0
    6.8555    2.1770    0.0000 H   0  0  0  0  0  0  0  0  0  0  0  0
    9.1167    0.1949    0.0000 H   0  0  0  0  0  0  0  0  0  0  0  0
    9.4555    0.9523    0.0000 H   0  0  0  0  0  0  0  0  0  0  0  0
    7.5371   -0.1508    0.0000 H   0  0  0  0  0  0  0  0  0  0  0  0
    8.3622   -0.2389    0.0000 H   0  0  0  0  0  0  0  0  0  0  0  0
    6.1675    3.3352    0.0000 H   0  0  0  0  0  0  0  0  0  0  0  0
    5.5464    2.7162    0.0000 H   0  0  0  0  0  0  0  0  0  0  0  0
    6.1654    2.0952    0.0000 H   0  0  0  0  0  0  0  0  0  0  0  0
    8.2043    3.2676    0.0000 H   0  0  0  0  0  0  0  0  0  0  0  0
    7.9788    4.1150    0.0000 H   0  0  0  0  0  0  0  0  0  0  0  0
    7.1315    3.8895    0.0000 H   0  0  0  0  0  0  0  0  0  0  0  0
    5.9880   -0.8427    0.0000 H   0  0  0  0  0  0  0  0  0  0  0  0
    6.5812   -0.3104    0.0000 H   0  0  0  0  0  0  0  0  0  0  0  0
    4.9684    0.1904    0.0000 H   0  0  0  0  0  0  0  0  0  0  0  0
    4.3751   -0.3419    0.0000 H   0  0  0  0  0  0  0  0  0  0  0  0
    5.8819   -2.1845    0.0000 H   0  0  0  0  0  0  0  0  0  0  0  0
    4.8709   -3.5786    0.0000 H   0  0  0  0  0  0  0  0  0  0  0  0
    2.8660   -0.5645    0.0000 H   0  0  0  0  0  0  0  0  0  0  0  0
    2.8660   -3.8045    0.0000 H   0  0  0  0  0  0  0  0  0  0  0  0
    1.4631   -1.3745    0.0000 H   0  0  0  0  0  0  0  0  0  0  0  0
    1.4631   -2.9945    0.0000 H   0  0  0  0  0  0  0  0  0  0  0  0
  1  9  2  0  0  0  0
  2  4  1  0  0  0  0
  2  8  1  0  0  0  0
  2  9  1  0  0  0  0
  3 16  1  0  0  0  0
  3 17  1  0  0  0  0
  3 41  1  0  0  0  0
  4  5  1  0  0  0  0
  4  6  1  0  0  0  0
  4 22  1  0  0  0  0
  5  7  1  0  0  0  0
  5 23  1  0  0  0  0
  5 24  1  0  0  0  0
  6 10  1  0  0  0  0
  6 11  1  0  0  0  0
  6 25  1  0  0  0  0
  7  8  1  0  0  0  0
  7 26  1  0  0  0  0
  7 27  1  0  0  0  0
  8 28  1  0  0  0  0
  8 29  1  0  0  0  0
  9 12  1  0  0  0  0
 10 33  1  0  0  0  0
 10 34  1  0  0  0  0
 10 35  1  0  0  0  0
 11 30  1  0  0  0  0
 11 31  1  0  0  0  0
 11 32  1  0  0  0  0
 12 13  1  0  0  0  0
 12 36  1  0  0  0  0
 12 37  1  0  0  0  0
 13 14  1  0  0  0  0
 13 38  1  0  0  0  0
 13 39  1  0  0  0  0
 14 15  1  0  0  0  0
 14 16  2  0  0  0  0
 15 17  1  0  0  0  0
 15 18  2  0  0  0  0
 16 40  1  0  0  0  0
 17 19  2  0  0  0  0
 18 20  1  0  0  0  0
 18 42  1  0  0  0  0
 19 21  1  0  0  0  0
 19 43  1  0  0  0  0
 20 21  2  0  0  0  0
 20 44  1  0  0  0  0
 21 45  1  0  0  0  0
M  END
> <PUBCHEM_COMPOUND_CID>
48194196

> <PUBCHEM_COMPOUND_CANONICALIZED>
1

> <PUBCHEM_CACTVS_COMPLEXITY>
368

> <PUBCHEM_CACTVS_HBOND_ACCEPTOR>
1

> <PUBCHEM_CACTVS_HBOND_DONOR>
1

> <PUBCHEM_CACTVS_ROTATABLE_BOND>
4

> <PUBCHEM_CACTVS_SUBSKEYS>
AAADceB7IAAAAAAAAAAAAAAAAAAAAWLAAAAwAAAAAAAAAFgB8AAAHgAQAAAADSjBngQ+wPPJkACoAzV3VACCgCAxAiAI2aE4ZJgIIPLAkZGEIAhglgDIyAcYicCOgAAAAAACAAAAAAAAAAQAAAAAAAAAAA==

> <PUBCHEM_IUPAC_OPENEYE_NAME>
3-(1H-indol-3-yl)-1-(2-isopropylpyrrolidin-1-yl)propan-1-one

> <PUBCHEM_IUPAC_CAS_NAME>
3-(1H-indol-3-yl)-1-(2-propan-2-yl-1-pyrrolidinyl)-1-propanone

> <PUBCHEM_IUPAC_NAME>
3-(1H-indol-3-yl)-1-(2-propan-2-ylpyrrolidin-1-yl)propan-1-one

> <PUBCHEM_IUPAC_SYSTEMATIC_NAME>
3-(1H-indol-3-yl)-1-(2-propan-2-ylpyrrolidin-1-yl)propan-1-one

> <PUBCHEM_IUPAC_TRADITIONAL_NAME>
3-(1H-indol-3-yl)-1-(2-isopropylpyrrolidino)propan-1-one

> <PUBCHEM_IUPAC_INCHI>
InChI=1S/C18H24N2O/c1-13(2)17-8-5-11-20(17)18(21)10-9-14-12-19-16-7-4-3-6-15(14)16/h3-4,6-7,12-13,17,19H,5,8-11H2,1-2H3

> <PUBCHEM_IUPAC_INCHIKEY>
OMELRAQRXPWBQQ-UHFFFAOYSA-N

> <PUBCHEM_XLOGP3>
3.6

> <PUBCHEM_EXACT_MASS>
284.188863

> <PUBCHEM_MOLECULAR_FORMULA>
C18H24N2O

> <PUBCHEM_MOLECULAR_WEIGHT>
284.39596

> <PUBCHEM_OPENEYE_CAN_SMILES>
CC(C)C1CCCN1C(=O)CCC2=CNC3=CC=CC=C32

> <PUBCHEM_OPENEYE_ISO_SMILES>
CC(C)C1CCCN1C(=O)CCC2=CNC3=CC=CC=C32

> <PUBCHEM_CACTVS_TPSA>
36.1

> <PUBCHEM_MONOISOTOPIC_WEIGHT>
284.188863

> <PUBCHEM_TOTAL_CHARGE>
0

> <PUBCHEM_HEAVY_ATOM_COUNT>
21

> <PUBCHEM_ATOM_DEF_STEREO_COUNT>
0

> <PUBCHEM_ATOM_UDEF_STEREO_COUNT>
1

> <PUBCHEM_BOND_DEF_STEREO_COUNT>
0

> <PUBCHEM_BOND_UDEF_STEREO_COUNT>
0

> <PUBCHEM_ISOTOPIC_ATOM_COUNT>
0

> <PUBCHEM_COMPONENT_COUNT>
1

> <PUBCHEM_CACTVS_TAUTO_COUNT>
1

> <PUBCHEM_COORDINATE_TYPE>
1
5
255

> <PUBCHEM_BONDANNOTATIONS>
14  15  8
14  16  8
15  17  8
15  18  8
17  19  8
18  20  8
19  21  8
20  21  8
3  16  8
3  17  8
4  6  3

$$$$
