44776464
  -OEChem-06121304442D

 54 57  0     1  0  0  0  0  0999 V2000
    6.1346    2.9869    0.0000 O   0  0  0  0  0  0  0  0  0  0  0  0
    8.4806    1.8950    0.0000 O   0  0  0  0  0  0  0  0  0  0  0  0
    8.4843    4.0706    0.0000 O   0  0  0  0  0  0  0  0  0  0  0  0
    7.0868    5.4884    0.0000 O   0  0  0  0  0  0  0  0  0  0  0  0
    2.8660   -4.5784    0.0000 O   0  0  0  0  0  0  0  0  0  0  0  0
    2.0000   -3.0784    0.0000 O   0  0  0  0  0  0  0  0  0  0  0  0
    6.4103    1.2263    0.0000 N   0  0  0  0  0  0  0  0  0  0  0  0
    4.5981   -1.5784    0.0000 N   0  0  0  0  0  0  0  0  0  0  0  0
    6.4103   -0.3832    0.0000 N   0  0  0  0  0  0  0  0  0  0  0  0
    4.5981    1.4216    0.0000 N   0  0  0  0  0  0  0  0  0  0  0  0
    3.7320   -0.0784    0.0000 N   0  0  0  0  0  0  0  0  0  0  0  0
    6.7210    2.1768    0.0000 C   0  0  1  0  0  0  0  0  0  0  0  0
    7.6726    2.4842    0.0000 C   0  0  1  0  0  0  0  0  0  0  0  0
    7.6743    3.4842    0.0000 C   0  0  1  0  0  0  0  0  0  0  0  0
    6.7238    3.7949    0.0000 C   0  0  1  0  0  0  0  0  0  0  0  0
    3.7320   -3.0784    0.0000 C   0  0  3  0  0  0  0  0  0  0  0  0
    3.7320   -2.0784    0.0000 C   0  0  0  0  0  0  0  0  0  0  0  0
    4.5981   -3.5784    0.0000 C   0  0  0  0  0  0  0  0  0  0  0  0
    5.4641   -3.0784    0.0000 C   0  0  0  0  0  0  0  0  0  0  0  0
    5.4641   -2.0784    0.0000 C   0  0  0  0  0  0  0  0  0  0  0  0
    6.4164    4.7464    0.0000 C   0  0  0  0  0  0  0  0  0  0  0  0
    5.4641    0.9216    0.0000 C   0  0  0  0  0  0  0  0  0  0  0  0
    4.5981   -0.5784    0.0000 C   0  0  0  0  0  0  0  0  0  0  0  0
    5.4641   -0.0784    0.0000 C   0  0  0  0  0  0  0  0  0  0  0  0
    6.9939    0.4216    0.0000 C   0  0  0  0  0  0  0  0  0  0  0  0
    2.8660   -3.5784    0.0000 C   0  0  0  0  0  0  0  0  0  0  0  0
    3.7320    0.9216    0.0000 C   0  0  0  0  0  0  0  0  0  0  0  0
    2.0000   -5.0784    0.0000 C   0  0  0  0  0  0  0  0  0  0  0  0
    2.0000   -6.0784    0.0000 C   0  0  0  0  0  0  0  0  0  0  0  0
    6.1085    2.0809    0.0000 H   0  0  0  0  0  0  0  0  0  0  0  0
    8.2255    2.7647    0.0000 H   0  0  0  0  0  0  0  0  0  0  0  0
    8.2262    3.2018    0.0000 H   0  0  0  0  0  0  0  0  0  0  0  0
    6.1116    3.8929    0.0000 H   0  0  0  0  0  0  0  0  0  0  0  0
    3.7320   -3.6984    0.0000 H   0  0  0  0  0  0  0  0  0  0  0  0
    3.5200   -1.4958    0.0000 H   0  0  0  0  0  0  0  0  0  0  0  0
    3.1215   -2.1861    0.0000 H   0  0  0  0  0  0  0  0  0  0  0  0
    4.1996   -4.0534    0.0000 H   0  0  0  0  0  0  0  0  0  0  0  0
    4.9966   -4.0534    0.0000 H   0  0  0  0  0  0  0  0  0  0  0  0
    5.6762   -3.6610    0.0000 H   0  0  0  0  0  0  0  0  0  0  0  0
    6.0747   -2.9708    0.0000 H   0  0  0  0  0  0  0  0  0  0  0  0
    6.0747   -2.1861    0.0000 H   0  0  0  0  0  0  0  0  0  0  0  0
    5.6762   -1.4958    0.0000 H   0  0  0  0  0  0  0  0  0  0  0  0
    6.0356    5.2357    0.0000 H   0  0  0  0  0  0  0  0  0  0  0  0
    5.8685    4.4563    0.0000 H   0  0  0  0  0  0  0  0  0  0  0  0
    7.6139    0.4216    0.0000 H   0  0  0  0  0  0  0  0  0  0  0  0
    9.0474    2.1462    0.0000 H   0  0  0  0  0  0  0  0  0  0  0  0
    9.0503    3.8174    0.0000 H   0  0  0  0  0  0  0  0  0  0  0  0
    3.1951    1.2316    0.0000 H   0  0  0  0  0  0  0  0  0  0  0  0
    6.8963    6.0784    0.0000 H   0  0  0  0  0  0  0  0  0  0  0  0
    1.7880   -4.4958    0.0000 H   0  0  0  0  0  0  0  0  0  0  0  0
    1.3894   -5.1861    0.0000 H   0  0  0  0  0  0  0  0  0  0  0  0
    1.3800   -6.0784    0.0000 H   0  0  0  0  0  0  0  0  0  0  0  0
    2.0000   -6.6984    0.0000 H   0  0  0  0  0  0  0  0  0  0  0  0
    2.6200   -6.0784    0.0000 H   0  0  0  0  0  0  0  0  0  0  0  0
  1 12  1  0  0  0  0
  1 15  1  0  0  0  0
 13  2  1  1  0  0  0
  2 46  1  0  0  0  0
 14  3  1  1  0  0  0
  3 47  1  0  0  0  0
  4 21  1  0  0  0  0
  4 49  1  0  0  0  0
  5 26  1  0  0  0  0
  5 28  1  0  0  0  0
  6 26  2  0  0  0  0
 12  7  1  6  0  0  0
  7 22  1  0  0  0  0
  7 25  1  0  0  0  0
  8 17  1  0  0  0  0
  8 20  1  0  0  0  0
  8 23  1  0  0  0  0
  9 24  1  0  0  0  0
  9 25  2  0  0  0  0
 10 22  1  0  0  0  0
 10 27  2  0  0  0  0
 11 23  2  0  0  0  0
 11 27  1  0  0  0  0
 12 13  1  0  0  0  0
 12 30  1  0  0  0  0
 13 14  1  0  0  0  0
 13 31  1  0  0  0  0
 14 15  1  0  0  0  0
 14 32  1  0  0  0  0
 15 21  1  6  0  0  0
 15 33  1  0  0  0  0
 16 17  1  0  0  0  0
 16 18  1  0  0  0  0
 16 26  1  0  0  0  0
 16 34  1  0  0  0  0
 17 35  1  0  0  0  0
 17 36  1  0  0  0  0
 18 19  1  0  0  0  0
 18 37  1  0  0  0  0
 18 38  1  0  0  0  0
 19 20  1  0  0  0  0
 19 39  1  0  0  0  0
 19 40  1  0  0  0  0
 20 41  1  0  0  0  0
 20 42  1  0  0  0  0
 21 43  1  0  0  0  0
 21 44  1  0  0  0  0
 22 24  2  0  0  0  0
 23 24  1  0  0  0  0
 25 45  1  0  0  0  0
 27 48  1  0  0  0  0
 28 29  1  0  0  0  0
 28 50  1  0  0  0  0
 28 51  1  0  0  0  0
 29 52  1  0  0  0  0
 29 53  1  0  0  0  0
 29 54  1  0  0  0  0
M  END
> <PUBCHEM_COMPOUND_CID>
44776464

> <PUBCHEM_COMPOUND_CANONICALIZED>
1

> <PUBCHEM_CACTVS_COMPLEXITY>
585

> <PUBCHEM_CACTVS_HBOND_ACCEPTOR>
10

> <PUBCHEM_CACTVS_HBOND_DONOR>
3

> <PUBCHEM_CACTVS_ROTATABLE_BOND>
6

> <PUBCHEM_CACTVS_SUBSKEYS>
AAADceB7uAAAAAAAAAAAAAAAAAAAAWJAAAAsWAAAAAAAAFgB+AAAHgAACAAADRzhlwYH+L8MFgCoAQbxbACAgC0REKABUCEoVBCDWBpAyEAeRAgPAALTACD4MQIMAAAAAAAAAAAAAAAAAAAAAAAAAAAAAA==

> <PUBCHEM_IUPAC_OPENEYE_NAME>
ethyl 1-[9-[(2R,3R,4S,5R)-3,4-dihydroxy-5-(hydroxymethyl)tetrahydrofuran-2-yl]purin-6-yl]piperidine-3-carboxylate

> <PUBCHEM_IUPAC_CAS_NAME>
1-[9-[(2R,3R,4S,5R)-3,4-dihydroxy-5-(hydroxymethyl)-2-oxolanyl]-6-purinyl]-3-piperidinecarboxylic acid ethyl ester

> <PUBCHEM_IUPAC_NAME>
ethyl 1-[9-[(2R,3R,4S,5R)-3,4-dihydroxy-5-(hydroxymethyl)oxolan-2-yl]purin-6-yl]piperidine-3-carboxylate

> <PUBCHEM_IUPAC_SYSTEMATIC_NAME>
ethyl 1-[9-[(2R,3R,4S,5R)-5-(hydroxymethyl)-3,4-bis(oxidanyl)oxolan-2-yl]purin-6-yl]piperidine-3-carboxylate

> <PUBCHEM_IUPAC_TRADITIONAL_NAME>
1-[9-[(2R,3R,4S,5R)-3,4-dihydroxy-5-methylol-tetrahydrofuran-2-yl]purin-6-yl]nipecotic acid ethyl ester

> <PUBCHEM_IUPAC_INCHI>
InChI=1S/C18H25N5O6/c1-2-28-18(27)10-4-3-5-22(6-10)15-12-16(20-8-19-15)23(9-21-12)17-14(26)13(25)11(7-24)29-17/h8-11,13-14,17,24-26H,2-7H2,1H3/t10?,11-,13-,14-,17-/m1/s1

> <PUBCHEM_IUPAC_INCHIKEY>
ABKNEBAOASRVKO-QIFOKDCASA-N

> <PUBCHEM_XLOGP3>
0.5

> <PUBCHEM_EXACT_MASS>
407.180484

> <PUBCHEM_MOLECULAR_FORMULA>
C18H25N5O6

> <PUBCHEM_MOLECULAR_WEIGHT>
407.421

> <PUBCHEM_OPENEYE_CAN_SMILES>
CCOC(=O)C1CCCN(C1)C2=NC=NC3=C2N=CN3C4C(C(C(O4)CO)O)O

> <PUBCHEM_OPENEYE_ISO_SMILES>
CCOC(=O)C1CCCN(C1)C2=NC=NC3=C2N=CN3[C@H]4[C@@H]([C@@H]([C@H](O4)CO)O)O

> <PUBCHEM_CACTVS_TPSA>
143

> <PUBCHEM_MONOISOTOPIC_WEIGHT>
407.180484

> <PUBCHEM_TOTAL_CHARGE>
0

> <PUBCHEM_HEAVY_ATOM_COUNT>
29

> <PUBCHEM_ATOM_DEF_STEREO_COUNT>
4

> <PUBCHEM_ATOM_UDEF_STEREO_COUNT>
1

> <PUBCHEM_BOND_DEF_STEREO_COUNT>
0

> <PUBCHEM_BOND_UDEF_STEREO_COUNT>
0

> <PUBCHEM_ISOTOPIC_ATOM_COUNT>
0

> <PUBCHEM_COMPONENT_COUNT>
1

> <PUBCHEM_CACTVS_TAUTO_COUNT>
1

> <PUBCHEM_COORDINATE_TYPE>
1
5
255

> <PUBCHEM_BONDANNOTATIONS>
10  22  8
10  27  8
11  23  8
11  27  8
15  21  6
16  26  3
13  2  5
22  24  8
23  24  8
14  3  5
12  7  6
7  22  8
7  25  8
9  24  8
9  25  8

$$$$
44784931
  -OEChem-06121304442D

 30 31  0     0  0  0  0  0  0999 V2000
    2.0000   -3.2500    0.0000 Cl  0  0  0  0  0  0  0  0  0  0  0  0
    3.7320   -4.2500    0.0000 Cl  0  0  0  0  0  0  0  0  0  0  0  0
    4.5981    3.2500    0.0000 N   0  0  0  0  0  0  0  0  0  0  0  0
    3.7320    1.7500    0.0000 C   0  0  0  0  0  0  0  0  0  0  0  0
    3.7320   -0.2500    0.0000 C   0  0  0  0  0  0  0  0  0  0  0  0
    3.7320    2.7500    0.0000 C   0  0  0  0  0  0  0  0  0  0  0  0
    3.7320   -1.2500    0.0000 C   0  0  0  0  0  0  0  0  0  0  0  0
    2.8660    1.2500    0.0000 C   0  0  0  0  0  0  0  0  0  0  0  0
    4.5981    1.2500    0.0000 C   0  0  0  0  0  0  0  0  0  0  0  0
    2.8660    0.2500    0.0000 C   0  0  0  0  0  0  0  0  0  0  0  0
    4.5981    0.2500    0.0000 C   0  0  0  0  0  0  0  0  0  0  0  0
    2.8660   -1.7500    0.0000 C   0  0  0  0  0  0  0  0  0  0  0  0
    4.5981   -1.7500    0.0000 C   0  0  0  0  0  0  0  0  0  0  0  0
    2.8660   -2.7500    0.0000 C   0  0  0  0  0  0  0  0  0  0  0  0
    4.5981   -2.7500    0.0000 C   0  0  0  0  0  0  0  0  0  0  0  0
    3.7320   -3.2500    0.0000 C   0  0  0  0  0  0  0  0  0  0  0  0
    4.5981    4.2500    0.0000 C   0  0  0  0  0  0  0  0  0  0  0  0
    3.5200    3.3326    0.0000 H   0  0  0  0  0  0  0  0  0  0  0  0
    3.1215    2.6423    0.0000 H   0  0  0  0  0  0  0  0  0  0  0  0
    2.3291    1.5600    0.0000 H   0  0  0  0  0  0  0  0  0  0  0  0
    5.1350    1.5600    0.0000 H   0  0  0  0  0  0  0  0  0  0  0  0
    2.3291   -0.0600    0.0000 H   0  0  0  0  0  0  0  0  0  0  0  0
    5.1350   -0.0600    0.0000 H   0  0  0  0  0  0  0  0  0  0  0  0
    2.3291   -1.4400    0.0000 H   0  0  0  0  0  0  0  0  0  0  0  0
    5.1350   -1.4400    0.0000 H   0  0  0  0  0  0  0  0  0  0  0  0
    5.1350    2.9400    0.0000 H   0  0  0  0  0  0  0  0  0  0  0  0
    5.1350   -3.0600    0.0000 H   0  0  0  0  0  0  0  0  0  0  0  0
    5.2181    4.2500    0.0000 H   0  0  0  0  0  0  0  0  0  0  0  0
    4.5981    4.8700    0.0000 H   0  0  0  0  0  0  0  0  0  0  0  0
    3.9781    4.2500    0.0000 H   0  0  0  0  0  0  0  0  0  0  0  0
  1 14  1  0  0  0  0
  2 16  1  0  0  0  0
  3  6  1  0  0  0  0
  3 17  1  0  0  0  0
  3 26  1  0  0  0  0
  4  6  1  0  0  0  0
  4  8  2  0  0  0  0
  4  9  1  0  0  0  0
  5  7  1  0  0  0  0
  5 10  2  0  0  0  0
  5 11  1  0  0  0  0
  6 18  1  0  0  0  0
  6 19  1  0  0  0  0
  7 12  2  0  0  0  0
  7 13  1  0  0  0  0
  8 10  1  0  0  0  0
  8 20  1  0  0  0  0
  9 11  2  0  0  0  0
  9 21  1  0  0  0  0
 10 22  1  0  0  0  0
 11 23  1  0  0  0  0
 12 14  1  0  0  0  0
 12 24  1  0  0  0  0
 13 15  2  0  0  0  0
 13 25  1  0  0  0  0
 14 16  2  0  0  0  0
 15 16  1  0  0  0  0
 15 27  1  0  0  0  0
 17 28  1  0  0  0  0
 17 29  1  0  0  0  0
 17 30  1  0  0  0  0
M  END
> <PUBCHEM_COMPOUND_CID>
44784931

> <PUBCHEM_COMPOUND_CANONICALIZED>
1

> <PUBCHEM_CACTVS_COMPLEXITY>
226

> <PUBCHEM_CACTVS_HBOND_ACCEPTOR>
1

> <PUBCHEM_CACTVS_HBOND_DONOR>
1

> <PUBCHEM_CACTVS_ROTATABLE_BOND>
3

> <PUBCHEM_CACTVS_SUBSKEYS>
AAADccByAAAGAAAAAAAAAAAAAAAAAAAAAAAwYAAAAAAAAAABQAAAHAIQAAAADALBGCQyAILAAACAAiBCAACCAAAgBQAIisAIBogIICKBkxGEIAhggAAIiAcQgMAOxAAAIAAAAASIAABAAAAACAAAAAAAAA==

> <PUBCHEM_IUPAC_OPENEYE_NAME>
1-[4-(3,4-dichlorophenyl)phenyl]-N-methyl-methanamine

> <PUBCHEM_IUPAC_CAS_NAME>
1-[4-(3,4-dichlorophenyl)phenyl]-N-methylmethanamine

> <PUBCHEM_IUPAC_NAME>
1-[4-(3,4-dichlorophenyl)phenyl]-N-methylmethanamine

> <PUBCHEM_IUPAC_SYSTEMATIC_NAME>
1-[4-(3,4-dichlorophenyl)phenyl]-N-methyl-methanamine

> <PUBCHEM_IUPAC_TRADITIONAL_NAME>
[4-(3,4-dichlorophenyl)benzyl]-methyl-amine

> <PUBCHEM_IUPAC_INCHI>
InChI=1S/C14H13Cl2N/c1-17-9-10-2-4-11(5-3-10)12-6-7-13(15)14(16)8-12/h2-8,17H,9H2,1H3

> <PUBCHEM_IUPAC_INCHIKEY>
OISOVVYZMTVVEQ-UHFFFAOYSA-N

> <PUBCHEM_XLOGP3>
4.7

> <PUBCHEM_EXACT_MASS>
265.042505

> <PUBCHEM_MOLECULAR_FORMULA>
C14H13Cl2N

> <PUBCHEM_MOLECULAR_WEIGHT>
266.16572

> <PUBCHEM_OPENEYE_CAN_SMILES>
CNCC1=CC=C(C=C1)C2=CC(=C(C=C2)Cl)Cl

> <PUBCHEM_OPENEYE_ISO_SMILES>
CNCC1=CC=C(C=C1)C2=CC(=C(C=C2)Cl)Cl

> <PUBCHEM_CACTVS_TPSA>
12

> <PUBCHEM_MONOISOTOPIC_WEIGHT>
265.042505

> <PUBCHEM_TOTAL_CHARGE>
0

> <PUBCHEM_HEAVY_ATOM_COUNT>
17

> <PUBCHEM_ATOM_DEF_STEREO_COUNT>
0

> <PUBCHEM_ATOM_UDEF_STEREO_COUNT>
0

> <PUBCHEM_BOND_DEF_STEREO_COUNT>
0

> <PUBCHEM_BOND_UDEF_STEREO_COUNT>
0

> <PUBCHEM_ISOTOPIC_ATOM_COUNT>
0

> <PUBCHEM_COMPONENT_COUNT>
1

> <PUBCHEM_CACTVS_TAUTO_COUNT>
1

> <PUBCHEM_COORDINATE_TYPE>
1
5
255

> <PUBCHEM_BONDANNOTATIONS>
12  14  8
13  15  8
14  16  8
15  16  8
4  8  8
4  9  8
5  10  8
5  11  8
7  12  8
7  13  8
8  10  8
9  11  8

$$$$
44784933
  -OEChem-06121304442D

 30 31  0     0  0  0  0  0  0999 V2000
    5.1350    1.7500    0.0000 Cl  0  0  0  0  0  0  0  0  0  0  0  0
    2.5369   -2.7500    0.0000 N   0  0  0  0  0  0  0  0  0  0  0  0
    3.4030   -1.2500    0.0000 C   0  0  0  0  0  0  0  0  0  0  0  0
    3.4030    0.7500    0.0000 C   0  0  0  0  0  0  0  0  0  0  0  0
    3.4030   -2.2500    0.0000 C   0  0  0  0  0  0  0  0  0  0  0  0
    3.4030    1.7500    0.0000 C   0  0  0  0  0  0  0  0  0  0  0  0
    4.2690   -0.7500    0.0000 C   0  0  0  0  0  0  0  0  0  0  0  0
    2.5369   -0.7500    0.0000 C   0  0  0  0  0  0  0  0  0  0  0  0
    4.2690    0.2500    0.0000 C   0  0  0  0  0  0  0  0  0  0  0  0
    2.5369    0.2500    0.0000 C   0  0  0  0  0  0  0  0  0  0  0  0
    4.2690    2.2500    0.0000 C   0  0  0  0  0  0  0  0  0  0  0  0
    2.5369    2.2500    0.0000 C   0  0  0  0  0  0  0  0  0  0  0  0
    4.2690    3.2500    0.0000 C   0  0  0  0  0  0  0  0  0  0  0  0
    2.5369    3.2500    0.0000 C   0  0  0  0  0  0  0  0  0  0  0  0
    3.4030    3.7500    0.0000 C   0  0  0  0  0  0  0  0  0  0  0  0
    2.5369   -3.7500    0.0000 C   0  0  0  0  0  0  0  0  0  0  0  0
    3.6150   -2.8326    0.0000 H   0  0  0  0  0  0  0  0  0  0  0  0
    4.0135   -2.1423    0.0000 H   0  0  0  0  0  0  0  0  0  0  0  0
    4.8059   -1.0600    0.0000 H   0  0  0  0  0  0  0  0  0  0  0  0
    2.0000   -1.0600    0.0000 H   0  0  0  0  0  0  0  0  0  0  0  0
    4.8059    0.5600    0.0000 H   0  0  0  0  0  0  0  0  0  0  0  0
    2.0000    0.5600    0.0000 H   0  0  0  0  0  0  0  0  0  0  0  0
    2.0000    1.9400    0.0000 H   0  0  0  0  0  0  0  0  0  0  0  0
    2.0000   -2.4400    0.0000 H   0  0  0  0  0  0  0  0  0  0  0  0
    4.8059    3.5600    0.0000 H   0  0  0  0  0  0  0  0  0  0  0  0
    2.0000    3.5600    0.0000 H   0  0  0  0  0  0  0  0  0  0  0  0
    3.4030    4.3700    0.0000 H   0  0  0  0  0  0  0  0  0  0  0  0
    1.9169   -3.7500    0.0000 H   0  0  0  0  0  0  0  0  0  0  0  0
    2.5369   -4.3700    0.0000 H   0  0  0  0  0  0  0  0  0  0  0  0
    3.1569   -3.7500    0.0000 H   0  0  0  0  0  0  0  0  0  0  0  0
  1 11  1  0  0  0  0
  2  5  1  0  0  0  0
  2 16  1  0  0  0  0
  2 24  1  0  0  0  0
  3  5  1  0  0  0  0
  3  7  2  0  0  0  0
  3  8  1  0  0  0  0
  4  6  1  0  0  0  0
  4  9  2  0  0  0  0
  4 10  1  0  0  0  0
  5 17  1  0  0  0  0
  5 18  1  0  0  0  0
  6 11  1  0  0  0  0
  6 12  2  0  0  0  0
  7  9  1  0  0  0  0
  7 19  1  0  0  0  0
  8 10  2  0  0  0  0
  8 20  1  0  0  0  0
  9 21  1  0  0  0  0
 10 22  1  0  0  0  0
 11 13  2  0  0  0  0
 12 14  1  0  0  0  0
 12 23  1  0  0  0  0
 13 15  1  0  0  0  0
 13 25  1  0  0  0  0
 14 15  2  0  0  0  0
 14 26  1  0  0  0  0
 15 27  1  0  0  0  0
 16 28  1  0  0  0  0
 16 29  1  0  0  0  0
 16 30  1  0  0  0  0
M  END
> <PUBCHEM_COMPOUND_CID>
44784933

> <PUBCHEM_COMPOUND_CANONICALIZED>
1

> <PUBCHEM_CACTVS_COMPLEXITY>
199

> <PUBCHEM_CACTVS_HBOND_ACCEPTOR>
1

> <PUBCHEM_CACTVS_HBOND_DONOR>
1

> <PUBCHEM_CACTVS_ROTATABLE_BOND>
3

> <PUBCHEM_CACTVS_SUBSKEYS>
AAADccByAAAEAAAAAAAAAAAAAAAAAAAAAAAwYAAAAAAAAAABQAAAHAIQAAAADALBGCQyAILAAACAAiBCAACCAAAgBQAIiIAIBogIICKBkxGEIAhggAAIiAcQgMAOwAAAAAABAACAAAAAAAIAAAAAAAAAAA==

> <PUBCHEM_IUPAC_OPENEYE_NAME>
1-[4-(2-chlorophenyl)phenyl]-N-methyl-methanamine

> <PUBCHEM_IUPAC_CAS_NAME>
1-[4-(2-chlorophenyl)phenyl]-N-methylmethanamine

> <PUBCHEM_IUPAC_NAME>
1-[4-(2-chlorophenyl)phenyl]-N-methylmethanamine

> <PUBCHEM_IUPAC_SYSTEMATIC_NAME>
1-[4-(2-chlorophenyl)phenyl]-N-methyl-methanamine

> <PUBCHEM_IUPAC_TRADITIONAL_NAME>
[4-(2-chlorophenyl)benzyl]-methyl-amine

> <PUBCHEM_IUPAC_INCHI>
InChI=1S/C14H14ClN/c1-16-10-11-6-8-12(9-7-11)13-4-2-3-5-14(13)15/h2-9,16H,10H2,1H3

> <PUBCHEM_IUPAC_INCHIKEY>
PDBHCSKBQHTMMO-UHFFFAOYSA-N

> <PUBCHEM_XLOGP3>
3.9

> <PUBCHEM_EXACT_MASS>
231.081477

> <PUBCHEM_MOLECULAR_FORMULA>
C14H14ClN

> <PUBCHEM_MOLECULAR_WEIGHT>
231.72066

> <PUBCHEM_OPENEYE_CAN_SMILES>
CNCC1=CC=C(C=C1)C2=CC=CC=C2Cl

> <PUBCHEM_OPENEYE_ISO_SMILES>
CNCC1=CC=C(C=C1)C2=CC=CC=C2Cl

> <PUBCHEM_CACTVS_TPSA>
12

> <PUBCHEM_MONOISOTOPIC_WEIGHT>
231.081477

> <PUBCHEM_TOTAL_CHARGE>
0

> <PUBCHEM_HEAVY_ATOM_COUNT>
16

> <PUBCHEM_ATOM_DEF_STEREO_COUNT>
0

> <PUBCHEM_ATOM_UDEF_STEREO_COUNT>
0

> <PUBCHEM_BOND_DEF_STEREO_COUNT>
0

> <PUBCHEM_BOND_UDEF_STEREO_COUNT>
0

> <PUBCHEM_ISOTOPIC_ATOM_COUNT>
0

> <PUBCHEM_COMPONENT_COUNT>
1

> <PUBCHEM_CACTVS_TAUTO_COUNT>
1

> <PUBCHEM_COORDINATE_TYPE>
1
5
255

> <PUBCHEM_BONDANNOTATIONS>
11  13  8
12  14  8
13  15  8
14  15  8
3  7  8
3  8  8
4  10  8
4  9  8
6  11  8
6  12  8
7  9  8
8  10  8

$$$$
