65246843
  -OEChem-11301218262D

 39 40  0     0  0  0  0  0  0999 V2000
    4.6783   -1.0243    0.0000 N   0  0  0  0  0  0  0  0  0  0  0  0
    7.5673    2.2397    0.0000 N   0  0  0  0  0  0  0  0  0  0  0  0
    6.2781    1.0830    0.0000 C   0  0  0  0  0  0  0  0  0  0  0  0
    5.9674    0.1324    0.0000 C   0  0  0  0  0  0  0  0  0  0  0  0
    4.9889   -0.0738    0.0000 C   0  0  0  0  0  0  0  0  0  0  0  0
    6.5888    2.0335    0.0000 C   0  0  0  0  0  0  0  0  0  0  0  0
    7.2286    0.7723    0.0000 C   0  0  0  0  0  0  0  0  0  0  0  0
    5.3276    1.3936    0.0000 C   0  0  0  0  0  0  0  0  0  0  0  0
    3.7320   -1.3290    0.0000 C   0  0  0  0  0  0  0  0  0  0  0  0
    5.2619   -1.8290    0.0000 C   0  0  0  0  0  0  0  0  0  0  0  0
    3.7320   -2.3290    0.0000 C   0  0  0  0  0  0  0  0  0  0  0  0
    4.6783   -2.6338    0.0000 C   0  0  0  0  0  0  0  0  0  0  0  0
    2.8660   -0.8290    0.0000 C   0  0  0  0  0  0  0  0  0  0  0  0
    6.2619   -1.8290    0.0000 C   0  0  0  0  0  0  0  0  0  0  0  0
    2.8660   -2.8290    0.0000 C   0  0  0  0  0  0  0  0  0  0  0  0
    2.0000   -1.3290    0.0000 C   0  0  0  0  0  0  0  0  0  0  0  0
    2.0000   -2.3290    0.0000 C   0  0  0  0  0  0  0  0  0  0  0  0
    5.9880   -0.4872    0.0000 H   0  0  0  0  0  0  0  0  0  0  0  0
    6.5812    0.0451    0.0000 H   0  0  0  0  0  0  0  0  0  0  0  0
    4.9684    0.5459    0.0000 H   0  0  0  0  0  0  0  0  0  0  0  0
    4.3751    0.0136    0.0000 H   0  0  0  0  0  0  0  0  0  0  0  0
    6.5682    2.6531    0.0000 H   0  0  0  0  0  0  0  0  0  0  0  0
    5.9750    2.1208    0.0000 H   0  0  0  0  0  0  0  0  0  0  0  0
    7.0360    0.1830    0.0000 H   0  0  0  0  0  0  0  0  0  0  0  0
    7.8179    0.5797    0.0000 H   0  0  0  0  0  0  0  0  0  0  0  0
    7.4212    1.3616    0.0000 H   0  0  0  0  0  0  0  0  0  0  0  0
    5.5202    1.9830    0.0000 H   0  0  0  0  0  0  0  0  0  0  0  0
    4.7383    1.5862    0.0000 H   0  0  0  0  0  0  0  0  0  0  0  0
    5.1350    0.8043    0.0000 H   0  0  0  0  0  0  0  0  0  0  0  0
    4.8709   -3.2231    0.0000 H   0  0  0  0  0  0  0  0  0  0  0  0
    7.7599    2.8290    0.0000 H   0  0  0  0  0  0  0  0  0  0  0  0
    7.9813    1.7782    0.0000 H   0  0  0  0  0  0  0  0  0  0  0  0
    2.8660   -0.2090    0.0000 H   0  0  0  0  0  0  0  0  0  0  0  0
    6.2619   -2.4490    0.0000 H   0  0  0  0  0  0  0  0  0  0  0  0
    6.8819   -1.8290    0.0000 H   0  0  0  0  0  0  0  0  0  0  0  0
    6.2619   -1.2090    0.0000 H   0  0  0  0  0  0  0  0  0  0  0  0
    2.8660   -3.4490    0.0000 H   0  0  0  0  0  0  0  0  0  0  0  0
    1.4631   -1.0190    0.0000 H   0  0  0  0  0  0  0  0  0  0  0  0
    1.4631   -2.6390    0.0000 H   0  0  0  0  0  0  0  0  0  0  0  0
  1  5  1  0  0  0  0
  1  9  1  0  0  0  0
  1 10  1  0  0  0  0
  2  6  1  0  0  0  0
  2 31  1  0  0  0  0
  2 32  1  0  0  0  0
  3  4  1  0  0  0  0
  3  6  1  0  0  0  0
  3  7  1  0  0  0  0
  3  8  1  0  0  0  0
  4  5  1  0  0  0  0
  4 18  1  0  0  0  0
  4 19  1  0  0  0  0
  5 20  1  0  0  0  0
  5 21  1  0  0  0  0
  6 22  1  0  0  0  0
  6 23  1  0  0  0  0
  7 24  1  0  0  0  0
  7 25  1  0  0  0  0
  7 26  1  0  0  0  0
  8 27  1  0  0  0  0
  8 28  1  0  0  0  0
  8 29  1  0  0  0  0
  9 11  1  0  0  0  0
  9 13  2  0  0  0  0
 10 12  2  0  0  0  0
 10 14  1  0  0  0  0
 11 12  1  0  0  0  0
 11 15  2  0  0  0  0
 12 30  1  0  0  0  0
 13 16  1  0  0  0  0
 13 33  1  0  0  0  0
 14 34  1  0  0  0  0
 14 35  1  0  0  0  0
 14 36  1  0  0  0  0
 15 17  1  0  0  0  0
 15 37  1  0  0  0  0
 16 17  2  0  0  0  0
 16 38  1  0  0  0  0
 17 39  1  0  0  0  0
M  END
> <PUBCHEM_COMPOUND_CID>
65246843

> <PUBCHEM_COMPOUND_CANONICALIZED>
1

> <PUBCHEM_CACTVS_COMPLEXITY>
249

> <PUBCHEM_CACTVS_HBOND_ACCEPTOR>
1

> <PUBCHEM_CACTVS_HBOND_DONOR>
1

> <PUBCHEM_CACTVS_ROTATABLE_BOND>
4

> <PUBCHEM_CACTVS_SUBSKEYS>
AAADceBzAAAAAAAAAAAAAAAAAAAAAWAAAAAwAAAAAAAAAFgB8AAAHAAQAAAADgjBHgQywPNMEACgAyRiRACCgCAhAiAI2KA4ZJgIIOLAkZGEIAhggADIyAcQgIAPAAAAAAACAAAAAAAAAAQAAAAAAAAAAA==

> <PUBCHEM_IUPAC_OPENEYE_NAME>
2,2-dimethyl-4-(2-methylindol-1-yl)butan-1-amine

> <PUBCHEM_IUPAC_CAS_NAME>
2,2-dimethyl-4-(2-methyl-1-indolyl)-1-butanamine

> <PUBCHEM_IUPAC_NAME>
2,2-dimethyl-4-(2-methylindol-1-yl)butan-1-amine

> <PUBCHEM_IUPAC_SYSTEMATIC_NAME>
2,2-dimethyl-4-(2-methylindol-1-yl)butan-1-amine

> <PUBCHEM_IUPAC_TRADITIONAL_NAME>
[2,2-dimethyl-4-(2-methylindol-1-yl)butyl]amine

> <PUBCHEM_IUPAC_INCHI>
InChI=1S/C15H22N2/c1-12-10-13-6-4-5-7-14(13)17(12)9-8-15(2,3)11-16/h4-7,10H,8-9,11,16H2,1-3H3

> <PUBCHEM_IUPAC_INCHIKEY>
PBOAQCWABGKUOV-UHFFFAOYSA-N

> <PUBCHEM_XLOGP3>
3.4

> <PUBCHEM_EXACT_MASS>
230.178299

> <PUBCHEM_MOLECULAR_FORMULA>
C15H22N2

> <PUBCHEM_MOLECULAR_WEIGHT>
230.34858

> <PUBCHEM_OPENEYE_CAN_SMILES>
CC1=CC2=CC=CC=C2N1CCC(C)(C)CN

> <PUBCHEM_OPENEYE_ISO_SMILES>
CC1=CC2=CC=CC=C2N1CCC(C)(C)CN

> <PUBCHEM_CACTVS_TPSA>
31

> <PUBCHEM_MONOISOTOPIC_WEIGHT>
230.178299

> <PUBCHEM_TOTAL_CHARGE>
0

> <PUBCHEM_HEAVY_ATOM_COUNT>
17

> <PUBCHEM_ATOM_DEF_STEREO_COUNT>
0

> <PUBCHEM_ATOM_UDEF_STEREO_COUNT>
0

> <PUBCHEM_BOND_DEF_STEREO_COUNT>
0

> <PUBCHEM_BOND_UDEF_STEREO_COUNT>
0

> <PUBCHEM_ISOTOPIC_ATOM_COUNT>
0

> <PUBCHEM_COMPONENT_COUNT>
1

> <PUBCHEM_CACTVS_TAUTO_COUNT>
1

> <PUBCHEM_COORDINATE_TYPE>
1
5
255

> <PUBCHEM_BONDANNOTATIONS>
1  10  8
1  9  8
10  12  8
11  12  8
11  15  8
13  16  8
15  17  8
16  17  8
9  11  8
9  13  8

$$$$
65246845
  -OEChem-11301218262D

 36 37  0     0  0  0  0  0  0999 V2000
    4.6783   -1.0243    0.0000 N   0  0  0  0  0  0  0  0  0  0  0  0
    7.5673    2.2397    0.0000 N   0  0  0  0  0  0  0  0  0  0  0  0
    6.2781    1.0830    0.0000 C   0  0  0  0  0  0  0  0  0  0  0  0
    5.9674    0.1324    0.0000 C   0  0  0  0  0  0  0  0  0  0  0  0
    4.9889   -0.0738    0.0000 C   0  0  0  0  0  0  0  0  0  0  0  0
    6.5888    2.0335    0.0000 C   0  0  0  0  0  0  0  0  0  0  0  0
    7.2286    0.7723    0.0000 C   0  0  0  0  0  0  0  0  0  0  0  0
    5.3276    1.3936    0.0000 C   0  0  0  0  0  0  0  0  0  0  0  0
    3.7320   -1.3290    0.0000 C   0  0  0  0  0  0  0  0  0  0  0  0
    5.2619   -1.8290    0.0000 C   0  0  0  0  0  0  0  0  0  0  0  0
    3.7320   -2.3290    0.0000 C   0  0  0  0  0  0  0  0  0  0  0  0
    4.6783   -2.6338    0.0000 C   0  0  0  0  0  0  0  0  0  0  0  0
    2.8660   -0.8290    0.0000 C   0  0  0  0  0  0  0  0  0  0  0  0
    2.8660   -2.8290    0.0000 C   0  0  0  0  0  0  0  0  0  0  0  0
    2.0000   -1.3290    0.0000 C   0  0  0  0  0  0  0  0  0  0  0  0
    2.0000   -2.3290    0.0000 C   0  0  0  0  0  0  0  0  0  0  0  0
    5.9880   -0.4872    0.0000 H   0  0  0  0  0  0  0  0  0  0  0  0
    6.5812    0.0451    0.0000 H   0  0  0  0  0  0  0  0  0  0  0  0
    4.9684    0.5459    0.0000 H   0  0  0  0  0  0  0  0  0  0  0  0
    4.3751    0.0136    0.0000 H   0  0  0  0  0  0  0  0  0  0  0  0
    6.5682    2.6531    0.0000 H   0  0  0  0  0  0  0  0  0  0  0  0
    5.9750    2.1208    0.0000 H   0  0  0  0  0  0  0  0  0  0  0  0
    5.5202    1.9830    0.0000 H   0  0  0  0  0  0  0  0  0  0  0  0
    4.7383    1.5862    0.0000 H   0  0  0  0  0  0  0  0  0  0  0  0
    7.0360    0.1830    0.0000 H   0  0  0  0  0  0  0  0  0  0  0  0
    7.8179    0.5797    0.0000 H   0  0  0  0  0  0  0  0  0  0  0  0
    7.4212    1.3616    0.0000 H   0  0  0  0  0  0  0  0  0  0  0  0
    5.1350    0.8043    0.0000 H   0  0  0  0  0  0  0  0  0  0  0  0
    5.8819   -1.8290    0.0000 H   0  0  0  0  0  0  0  0  0  0  0  0
    7.7599    2.8290    0.0000 H   0  0  0  0  0  0  0  0  0  0  0  0
    7.9813    1.7782    0.0000 H   0  0  0  0  0  0  0  0  0  0  0  0
    4.8709   -3.2231    0.0000 H   0  0  0  0  0  0  0  0  0  0  0  0
    2.8660   -0.2090    0.0000 H   0  0  0  0  0  0  0  0  0  0  0  0
    2.8660   -3.4490    0.0000 H   0  0  0  0  0  0  0  0  0  0  0  0
    1.4631   -1.0190    0.0000 H   0  0  0  0  0  0  0  0  0  0  0  0
    1.4631   -2.6390    0.0000 H   0  0  0  0  0  0  0  0  0  0  0  0
  1  5  1  0  0  0  0
  1  9  1  0  0  0  0
  1 10  1  0  0  0  0
  2  6  1  0  0  0  0
  2 30  1  0  0  0  0
  2 31  1  0  0  0  0
  3  4  1  0  0  0  0
  3  6  1  0  0  0  0
  3  7  1  0  0  0  0
  3  8  1  0  0  0  0
  4  5  1  0  0  0  0
  4 17  1  0  0  0  0
  4 18  1  0  0  0  0
  5 19  1  0  0  0  0
  5 20  1  0  0  0  0
  6 21  1  0  0  0  0
  6 22  1  0  0  0  0
  7 25  1  0  0  0  0
  7 26  1  0  0  0  0
  7 27  1  0  0  0  0
  8 23  1  0  0  0  0
  8 24  1  0  0  0  0
  8 28  1  0  0  0  0
  9 11  1  0  0  0  0
  9 13  2  0  0  0  0
 10 12  2  0  0  0  0
 10 29  1  0  0  0  0
 11 12  1  0  0  0  0
 11 14  2  0  0  0  0
 12 32  1  0  0  0  0
 13 15  1  0  0  0  0
 13 33  1  0  0  0  0
 14 16  1  0  0  0  0
 14 34  1  0  0  0  0
 15 16  2  0  0  0  0
 15 35  1  0  0  0  0
 16 36  1  0  0  0  0
M  END
> <PUBCHEM_COMPOUND_CID>
65246845

> <PUBCHEM_COMPOUND_CANONICALIZED>
1

> <PUBCHEM_CACTVS_COMPLEXITY>
225

> <PUBCHEM_CACTVS_HBOND_ACCEPTOR>
1

> <PUBCHEM_CACTVS_HBOND_DONOR>
1

> <PUBCHEM_CACTVS_ROTATABLE_BOND>
4

> <PUBCHEM_CACTVS_SUBSKEYS>
AAADceBzAAAAAAAAAAAAAAAAAAAAAWAAAAAwAAAAAAAAAFgB8AAAHAAQAAAADgjBHgQ+wPNMEACgAzRnRACCgCAxAiAI2KA4ZJgIIOLAkZGEIAhggADIyAcQgIAPAAAAAAACAAAAAAAAAAQAAAAAAAAAAA==

> <PUBCHEM_IUPAC_OPENEYE_NAME>
4-indol-1-yl-2,2-dimethyl-butan-1-amine

> <PUBCHEM_IUPAC_CAS_NAME>
4-(1-indolyl)-2,2-dimethyl-1-butanamine

> <PUBCHEM_IUPAC_NAME>
4-indol-1-yl-2,2-dimethylbutan-1-amine

> <PUBCHEM_IUPAC_SYSTEMATIC_NAME>
4-indol-1-yl-2,2-dimethyl-butan-1-amine

> <PUBCHEM_IUPAC_TRADITIONAL_NAME>
(4-indol-1-yl-2,2-dimethyl-butyl)amine

> <PUBCHEM_IUPAC_INCHI>
InChI=1S/C14H20N2/c1-14(2,11-15)8-10-16-9-7-12-5-3-4-6-13(12)16/h3-7,9H,8,10-11,15H2,1-2H3

> <PUBCHEM_IUPAC_INCHIKEY>
YTRGYQBLXMKLHX-UHFFFAOYSA-N

> <PUBCHEM_XLOGP3>
3.3

> <PUBCHEM_EXACT_MASS>
216.162649

> <PUBCHEM_MOLECULAR_FORMULA>
C14H20N2

> <PUBCHEM_MOLECULAR_WEIGHT>
216.322

> <PUBCHEM_OPENEYE_CAN_SMILES>
CC(C)(CCN1C=CC2=CC=CC=C21)CN

> <PUBCHEM_OPENEYE_ISO_SMILES>
CC(C)(CCN1C=CC2=CC=CC=C21)CN

> <PUBCHEM_CACTVS_TPSA>
31

> <PUBCHEM_MONOISOTOPIC_WEIGHT>
216.162649

> <PUBCHEM_TOTAL_CHARGE>
0

> <PUBCHEM_HEAVY_ATOM_COUNT>
16

> <PUBCHEM_ATOM_DEF_STEREO_COUNT>
0

> <PUBCHEM_ATOM_UDEF_STEREO_COUNT>
0

> <PUBCHEM_BOND_DEF_STEREO_COUNT>
0

> <PUBCHEM_BOND_UDEF_STEREO_COUNT>
0

> <PUBCHEM_ISOTOPIC_ATOM_COUNT>
0

> <PUBCHEM_COMPONENT_COUNT>
1

> <PUBCHEM_CACTVS_TAUTO_COUNT>
1

> <PUBCHEM_COORDINATE_TYPE>
1
5
255

> <PUBCHEM_BONDANNOTATIONS>
1  10  8
1  9  8
10  12  8
11  12  8
11  14  8
13  15  8
14  16  8
15  16  8
9  11  8
9  13  8

$$$$
