23762454
  -OEChem-11301217342D

 41 43  0     1  0  0  0  0  0999 V2000
    6.3301    1.4330    0.0000 O   0  0  0  0  0  0  0  0  0  0  0  0
    5.4641   -0.0670    0.0000 N   0  0  0  0  0  0  0  0  0  0  0  0
    4.5981    1.4330    0.0000 N   0  0  0  0  0  0  0  0  0  0  0  0
    6.8301   -1.4330    0.0000 C   0  0  3  0  0  0  0  0  0  0  0  0
    6.3301   -0.5670    0.0000 C   0  0  3  0  0  0  0  0  0  0  0  0
    7.3301   -0.5670    0.0000 C   0  0  0  0  0  0  0  0  0  0  0  0
    6.8301   -2.4330    0.0000 C   0  0  0  0  0  0  0  0  0  0  0  0
    5.9641   -2.9330    0.0000 C   0  0  0  0  0  0  0  0  0  0  0  0
    7.6962   -2.9330    0.0000 C   0  0  0  0  0  0  0  0  0  0  0  0
    5.4641    0.9330    0.0000 C   0  0  0  0  0  0  0  0  0  0  0  0
    5.9641   -3.9330    0.0000 C   0  0  0  0  0  0  0  0  0  0  0  0
    7.6962   -3.9330    0.0000 C   0  0  0  0  0  0  0  0  0  0  0  0
    4.5981    2.4330    0.0000 C   0  0  3  0  0  0  0  0  0  0  0  0
    6.8301   -4.4330    0.0000 C   0  0  0  0  0  0  0  0  0  0  0  0
    3.7320    2.9330    0.0000 C   0  0  0  0  0  0  0  0  0  0  0  0
    5.4641    2.9330    0.0000 C   0  0  0  0  0  0  0  0  0  0  0  0
    3.7320    3.9330    0.0000 C   0  0  0  0  0  0  0  0  0  0  0  0
    2.8660    2.4330    0.0000 C   0  0  0  0  0  0  0  0  0  0  0  0
    2.8660    4.4330    0.0000 C   0  0  0  0  0  0  0  0  0  0  0  0
    2.0000    2.9330    0.0000 C   0  0  0  0  0  0  0  0  0  0  0  0
    2.0000    3.9330    0.0000 C   0  0  0  0  0  0  0  0  0  0  0  0
    7.4290   -1.5935    0.0000 H   0  0  0  0  0  0  0  0  0  0  0  0
    6.4906    0.0319    0.0000 H   0  0  0  0  0  0  0  0  0  0  0  0
    7.9127   -0.7790    0.0000 H   0  0  0  0  0  0  0  0  0  0  0  0
    7.4378    0.0436    0.0000 H   0  0  0  0  0  0  0  0  0  0  0  0
    4.9272   -0.3770    0.0000 H   0  0  0  0  0  0  0  0  0  0  0  0
    5.4272   -2.6230    0.0000 H   0  0  0  0  0  0  0  0  0  0  0  0
    8.2331   -2.6230    0.0000 H   0  0  0  0  0  0  0  0  0  0  0  0
    4.0611    1.1230    0.0000 H   0  0  0  0  0  0  0  0  0  0  0  0
    5.4272   -4.2430    0.0000 H   0  0  0  0  0  0  0  0  0  0  0  0
    8.2331   -4.2430    0.0000 H   0  0  0  0  0  0  0  0  0  0  0  0
    5.1350    2.1230    0.0000 H   0  0  0  0  0  0  0  0  0  0  0  0
    6.8301   -5.0530    0.0000 H   0  0  0  0  0  0  0  0  0  0  0  0
    5.7741    2.3961    0.0000 H   0  0  0  0  0  0  0  0  0  0  0  0
    6.0010    3.2430    0.0000 H   0  0  0  0  0  0  0  0  0  0  0  0
    5.1541    3.4700    0.0000 H   0  0  0  0  0  0  0  0  0  0  0  0
    4.2690    4.2430    0.0000 H   0  0  0  0  0  0  0  0  0  0  0  0
    2.8660    1.8130    0.0000 H   0  0  0  0  0  0  0  0  0  0  0  0
    2.8660    5.0530    0.0000 H   0  0  0  0  0  0  0  0  0  0  0  0
    1.4631    2.6230    0.0000 H   0  0  0  0  0  0  0  0  0  0  0  0
    1.4631    4.2430    0.0000 H   0  0  0  0  0  0  0  0  0  0  0  0
  1 10  2  0  0  0  0
  2  5  1  0  0  0  0
  2 10  1  0  0  0  0
  2 26  1  0  0  0  0
  3 10  1  0  0  0  0
  3 13  1  0  0  0  0
  3 29  1  0  0  0  0
  4  5  1  0  0  0  0
  4  6  1  0  0  0  0
  4  7  1  0  0  0  0
  4 22  1  0  0  0  0
  5  6  1  0  0  0  0
  5 23  1  0  0  0  0
  6 24  1  0  0  0  0
  6 25  1  0  0  0  0
  7  8  2  0  0  0  0
  7  9  1  0  0  0  0
  8 11  1  0  0  0  0
  8 27  1  0  0  0  0
  9 12  2  0  0  0  0
  9 28  1  0  0  0  0
 11 14  2  0  0  0  0
 11 30  1  0  0  0  0
 12 14  1  0  0  0  0
 12 31  1  0  0  0  0
 13 15  1  0  0  0  0
 13 16  1  0  0  0  0
 13 32  1  0  0  0  0
 14 33  1  0  0  0  0
 15 17  2  0  0  0  0
 15 18  1  0  0  0  0
 16 34  1  0  0  0  0
 16 35  1  0  0  0  0
 16 36  1  0  0  0  0
 17 19  1  0  0  0  0
 17 37  1  0  0  0  0
 18 20  2  0  0  0  0
 18 38  1  0  0  0  0
 19 21  2  0  0  0  0
 19 39  1  0  0  0  0
 20 21  1  0  0  0  0
 20 40  1  0  0  0  0
 21 41  1  0  0  0  0
M  END
> <PUBCHEM_COMPOUND_CID>
23762454

> <PUBCHEM_COMPOUND_CANONICALIZED>
1

> <PUBCHEM_CACTVS_COMPLEXITY>
345

> <PUBCHEM_CACTVS_HBOND_ACCEPTOR>
1

> <PUBCHEM_CACTVS_HBOND_DONOR>
2

> <PUBCHEM_CACTVS_ROTATABLE_BOND>
4

> <PUBCHEM_CACTVS_SUBSKEYS>
AAADceB7IAAAAAAAAAAAAAAAGAAAAAAAAAAwYAAAAAAAAAABQAAAHgAQAAAADSjBGAQzAILAAACIAiBCEACCAAAgAAAIiIAIBIiIICKAkRGEIAholgIIiAcQgMAOgAAAAAAAAAAAAAAAAAAAAAAAAAAAAA==

> <PUBCHEM_IUPAC_OPENEYE_NAME>
1-(2-phenylcyclopropyl)-3-(1-phenylethyl)urea

> <PUBCHEM_IUPAC_CAS_NAME>
1-(2-phenylcyclopropyl)-3-(1-phenylethyl)urea

> <PUBCHEM_IUPAC_NAME>
1-(2-phenylcyclopropyl)-3-(1-phenylethyl)urea

> <PUBCHEM_IUPAC_SYSTEMATIC_NAME>
1-(2-phenylcyclopropyl)-3-(1-phenylethyl)urea

> <PUBCHEM_IUPAC_TRADITIONAL_NAME>
1-(2-phenylcyclopropyl)-3-(1-phenylethyl)urea

> <PUBCHEM_IUPAC_INCHI>
InChI=1S/C18H20N2O/c1-13(14-8-4-2-5-9-14)19-18(21)20-17-12-16(17)15-10-6-3-7-11-15/h2-11,13,16-17H,12H2,1H3,(H2,19,20,21)

> <PUBCHEM_IUPAC_INCHIKEY>
TYOVDRSZOGICMY-UHFFFAOYSA-N

> <PUBCHEM_XLOGP3>
3.2

> <PUBCHEM_EXACT_MASS>
280.157563

> <PUBCHEM_MOLECULAR_FORMULA>
C18H20N2O

> <PUBCHEM_MOLECULAR_WEIGHT>
280.3642

> <PUBCHEM_OPENEYE_CAN_SMILES>
CC(C1=CC=CC=C1)NC(=O)NC2CC2C3=CC=CC=C3

> <PUBCHEM_OPENEYE_ISO_SMILES>
CC(C1=CC=CC=C1)NC(=O)NC2CC2C3=CC=CC=C3

> <PUBCHEM_CACTVS_TPSA>
41.1

> <PUBCHEM_MONOISOTOPIC_WEIGHT>
280.157563

> <PUBCHEM_TOTAL_CHARGE>
0

> <PUBCHEM_HEAVY_ATOM_COUNT>
21

> <PUBCHEM_ATOM_DEF_STEREO_COUNT>
0

> <PUBCHEM_ATOM_UDEF_STEREO_COUNT>
3

> <PUBCHEM_BOND_DEF_STEREO_COUNT>
0

> <PUBCHEM_BOND_UDEF_STEREO_COUNT>
0

> <PUBCHEM_ISOTOPIC_ATOM_COUNT>
0

> <PUBCHEM_COMPONENT_COUNT>
1

> <PUBCHEM_CACTVS_TAUTO_COUNT>
3

> <PUBCHEM_COORDINATE_TYPE>
1
5
255

> <PUBCHEM_BONDANNOTATIONS>
11  14  8
12  14  8
13  16  3
15  17  8
15  18  8
17  19  8
18  20  8
19  21  8
5  2  3
20  21  8
4  7  3
7  8  8
7  9  8
8  11  8
9  12  8

$$$$
23763421
  -OEChem-11301217342D

 43 44  0     0  0  0  0  0  0999 V2000
    6.3301   -0.4330    0.0000 O   0  0  0  0  0  0  0  0  0  0  0  0
    5.4641    1.0670    0.0000 N   0  0  0  0  0  0  0  0  0  0  0  0
    4.5981   -0.4330    0.0000 N   0  0  0  0  0  0  0  0  0  0  0  0
    6.3301    2.5670    0.0000 C   0  0  0  0  0  0  0  0  0  0  0  0
    6.8301    3.4330    0.0000 C   0  0  0  0  0  0  0  0  0  0  0  0
    5.8301    3.4330    0.0000 C   0  0  0  0  0  0  0  0  0  0  0  0
    6.3301    1.5670    0.0000 C   0  0  0  0  0  0  0  0  0  0  0  0
    4.5981    1.5670    0.0000 C   0  0  0  0  0  0  0  0  0  0  0  0
    5.4641    0.0670    0.0000 C   0  0  0  0  0  0  0  0  0  0  0  0
    4.5981    2.5670    0.0000 C   0  0  0  0  0  0  0  0  0  0  0  0
    3.7320    3.0670    0.0000 C   0  0  0  0  0  0  0  0  0  0  0  0
    4.5981   -1.4330    0.0000 C   0  0  0  0  0  0  0  0  0  0  0  0
    3.7320   -1.9330    0.0000 C   0  0  0  0  0  0  0  0  0  0  0  0
    5.4641   -1.9330    0.0000 C   0  0  0  0  0  0  0  0  0  0  0  0
    2.8660   -1.4330    0.0000 C   0  0  0  0  0  0  0  0  0  0  0  0
    3.7320   -2.9330    0.0000 C   0  0  0  0  0  0  0  0  0  0  0  0
    5.4641   -2.9330    0.0000 C   0  0  0  0  0  0  0  0  0  0  0  0
    4.5981   -3.4330    0.0000 C   0  0  0  0  0  0  0  0  0  0  0  0
    2.0000   -1.9330    0.0000 C   0  0  0  0  0  0  0  0  0  0  0  0
    6.9290    2.4065    0.0000 H   0  0  0  0  0  0  0  0  0  0  0  0
    5.7225    4.0436    0.0000 H   0  0  0  0  0  0  0  0  0  0  0  0
    5.2475    3.2210    0.0000 H   0  0  0  0  0  0  0  0  0  0  0  0
    7.4127    3.2210    0.0000 H   0  0  0  0  0  0  0  0  0  0  0  0
    6.9378    4.0436    0.0000 H   0  0  0  0  0  0  0  0  0  0  0  0
    6.5422    0.9844    0.0000 H   0  0  0  0  0  0  0  0  0  0  0  0
    6.9407    1.6746    0.0000 H   0  0  0  0  0  0  0  0  0  0  0  0
    3.9875    1.6746    0.0000 H   0  0  0  0  0  0  0  0  0  0  0  0
    4.3860    0.9844    0.0000 H   0  0  0  0  0  0  0  0  0  0  0  0
    5.2087    2.4593    0.0000 H   0  0  0  0  0  0  0  0  0  0  0  0
    4.8101    3.1496    0.0000 H   0  0  0  0  0  0  0  0  0  0  0  0
    4.0611   -0.1230    0.0000 H   0  0  0  0  0  0  0  0  0  0  0  0
    4.0420    3.6039    0.0000 H   0  0  0  0  0  0  0  0  0  0  0  0
    3.1951    3.3770    0.0000 H   0  0  0  0  0  0  0  0  0  0  0  0
    3.4220    2.5300    0.0000 H   0  0  0  0  0  0  0  0  0  0  0  0
    3.2646   -0.9581    0.0000 H   0  0  0  0  0  0  0  0  0  0  0  0
    2.4675   -0.9581    0.0000 H   0  0  0  0  0  0  0  0  0  0  0  0
    6.0010   -1.6230    0.0000 H   0  0  0  0  0  0  0  0  0  0  0  0
    3.1951   -3.2430    0.0000 H   0  0  0  0  0  0  0  0  0  0  0  0
    6.0010   -3.2430    0.0000 H   0  0  0  0  0  0  0  0  0  0  0  0
    4.5981   -4.0530    0.0000 H   0  0  0  0  0  0  0  0  0  0  0  0
    1.6900   -1.3961    0.0000 H   0  0  0  0  0  0  0  0  0  0  0  0
    1.4631   -2.2430    0.0000 H   0  0  0  0  0  0  0  0  0  0  0  0
    2.3100   -2.4700    0.0000 H   0  0  0  0  0  0  0  0  0  0  0  0
  1  9  2  0  0  0  0
  2  7  1  0  0  0  0
  2  8  1  0  0  0  0
  2  9  1  0  0  0  0
  3  9  1  0  0  0  0
  3 12  1  0  0  0  0
  3 31  1  0  0  0  0
  4  5  1  0  0  0  0
  4  6  1  0  0  0  0
  4  7  1  0  0  0  0
  4 20  1  0  0  0  0
  5  6  1  0  0  0  0
  5 23  1  0  0  0  0
  5 24  1  0  0  0  0
  6 21  1  0  0  0  0
  6 22  1  0  0  0  0
  7 25  1  0  0  0  0
  7 26  1  0  0  0  0
  8 10  1  0  0  0  0
  8 27  1  0  0  0  0
  8 28  1  0  0  0  0
 10 11  1  0  0  0  0
 10 29  1  0  0  0  0
 10 30  1  0  0  0  0
 11 32  1  0  0  0  0
 11 33  1  0  0  0  0
 11 34  1  0  0  0  0
 12 13  1  0  0  0  0
 12 14  2  0  0  0  0
 13 15  1  0  0  0  0
 13 16  2  0  0  0  0
 14 17  1  0  0  0  0
 14 37  1  0  0  0  0
 15 19  1  0  0  0  0
 15 35  1  0  0  0  0
 15 36  1  0  0  0  0
 16 18  1  0  0  0  0
 16 38  1  0  0  0  0
 17 18  2  0  0  0  0
 17 39  1  0  0  0  0
 18 40  1  0  0  0  0
 19 41  1  0  0  0  0
 19 42  1  0  0  0  0
 19 43  1  0  0  0  0
M  END
> <PUBCHEM_COMPOUND_CID>
23763421

> <PUBCHEM_COMPOUND_CANONICALIZED>
1

> <PUBCHEM_CACTVS_COMPLEXITY>
289

> <PUBCHEM_CACTVS_HBOND_ACCEPTOR>
1

> <PUBCHEM_CACTVS_HBOND_DONOR>
1

> <PUBCHEM_CACTVS_ROTATABLE_BOND>
6

> <PUBCHEM_CACTVS_SUBSKEYS>
AAADceB7IAAAAAAAAAAAAAAAGAAAAAAAAAAwAAAAAAAAAAABAAAAHgAQAAAADQjBGAQzwIPAAACIAiRCUACCAAAhAgAIiAAIZIiIICLAkZGEIAholgLIyCcQgIAOAAAAAAACAAAAAAAAAAQAAAAAAAAAAA==

> <PUBCHEM_IUPAC_OPENEYE_NAME>
1-(cyclopropylmethyl)-3-(2-ethylphenyl)-1-propyl-urea

> <PUBCHEM_IUPAC_CAS_NAME>
1-(cyclopropylmethyl)-3-(2-ethylphenyl)-1-propylurea

> <PUBCHEM_IUPAC_NAME>
1-(cyclopropylmethyl)-3-(2-ethylphenyl)-1-propylurea

> <PUBCHEM_IUPAC_SYSTEMATIC_NAME>
1-(cyclopropylmethyl)-3-(2-ethylphenyl)-1-propyl-urea

> <PUBCHEM_IUPAC_TRADITIONAL_NAME>
1-(cyclopropylmethyl)-3-(2-ethylphenyl)-1-propyl-urea

> <PUBCHEM_IUPAC_INCHI>
InChI=1S/C16H24N2O/c1-3-11-18(12-13-9-10-13)16(19)17-15-8-6-5-7-14(15)4-2/h5-8,13H,3-4,9-12H2,1-2H3,(H,17,19)

> <PUBCHEM_IUPAC_INCHIKEY>
HHFTWBZSYWVBPC-UHFFFAOYSA-N

> <PUBCHEM_XLOGP3>
3

> <PUBCHEM_EXACT_MASS>
260.188863

> <PUBCHEM_MOLECULAR_FORMULA>
C16H24N2O

> <PUBCHEM_MOLECULAR_WEIGHT>
260.37456

> <PUBCHEM_OPENEYE_CAN_SMILES>
CCCN(CC1CC1)C(=O)NC2=CC=CC=C2CC

> <PUBCHEM_OPENEYE_ISO_SMILES>
CCCN(CC1CC1)C(=O)NC2=CC=CC=C2CC

> <PUBCHEM_CACTVS_TPSA>
32.3

> <PUBCHEM_MONOISOTOPIC_WEIGHT>
260.188863

> <PUBCHEM_TOTAL_CHARGE>
0

> <PUBCHEM_HEAVY_ATOM_COUNT>
19

> <PUBCHEM_ATOM_DEF_STEREO_COUNT>
0

> <PUBCHEM_ATOM_UDEF_STEREO_COUNT>
0

> <PUBCHEM_BOND_DEF_STEREO_COUNT>
0

> <PUBCHEM_BOND_UDEF_STEREO_COUNT>
0

> <PUBCHEM_ISOTOPIC_ATOM_COUNT>
0

> <PUBCHEM_COMPONENT_COUNT>
1

> <PUBCHEM_CACTVS_TAUTO_COUNT>
2

> <PUBCHEM_COORDINATE_TYPE>
1
5
255

> <PUBCHEM_BONDANNOTATIONS>
12  13  8
12  14  8
13  16  8
14  17  8
16  18  8
17  18  8

$$$$
23764889
  -OEChem-11301217342D

 49 49  0     1  0  0  0  0  0999 V2000
    6.3301   -0.2500    0.0000 O   0  0  0  0  0  0  0  0  0  0  0  0
    3.7320    1.2500    0.0000 O   0  0  0  0  0  0  0  0  0  0  0  0
    3.7320   -0.7500    0.0000 O   0  0  0  0  0  0  0  0  0  0  0  0
    5.4641    2.2500    0.0000 O   0  0  0  0  0  0  0  0  0  0  0  0
    6.3301   -2.2500    0.0000 O   0  0  0  0  0  0  0  0  0  0  0  0
    2.8660   -0.2500    0.0000 O   0  0  0  0  0  0  0  0  0  0  0  0
    4.5981   -2.2500    0.0000 O   0  0  0  0  0  0  0  0  0  0  0  0
    3.7320    2.2500    0.0000 O   0  0  0  0  0  0  0  0  0  0  0  0
    8.0622   -0.2500    0.0000 O   0  0  0  0  0  0  0  0  0  0  0  0
    5.4641   -3.7500    0.0000 O   0  0  0  0  0  0  0  0  0  0  0  0
    7.1962    1.2500    0.0000 N   0  0  0  0  0  0  0  0  0  0  0  0
    8.9282    1.2500    0.0000 N   0  0  0  0  0  0  0  0  0  0  0  0
    4.5981    0.7500    0.0000 C   0  0  2  0  0  0  0  0  0  0  0  0
    4.5981   -0.2500    0.0000 C   0  0  2  0  0  0  0  0  0  0  0  0
    5.4641    1.2500    0.0000 C   0  0  1  0  0  0  0  0  0  0  0  0
    5.4641   -0.7500    0.0000 C   0  0  2  0  0  0  0  0  0  0  0  0
    6.3301    0.7500    0.0000 C   0  0  2  0  0  0  0  0  0  0  0  0
    5.4641   -1.7500    0.0000 C   0  0  0  0  0  0  0  0  0  0  0  0
    2.8660    0.7500    0.0000 C   0  0  0  0  0  0  0  0  0  0  0  0
    3.7320   -1.7500    0.0000 C   0  0  0  0  0  0  0  0  0  0  0  0
    4.5981    2.7500    0.0000 C   0  0  0  0  0  0  0  0  0  0  0  0
    8.0622    0.7500    0.0000 C   0  0  0  0  0  0  0  0  0  0  0  0
    2.0000    1.2500    0.0000 C   0  0  0  0  0  0  0  0  0  0  0  0
    2.8660   -2.2500    0.0000 C   0  0  0  0  0  0  0  0  0  0  0  0
    6.3301   -3.2500    0.0000 C   0  0  0  0  0  0  0  0  0  0  0  0
    4.5981    3.7500    0.0000 C   0  0  0  0  0  0  0  0  0  0  0  0
    7.1962   -3.7500    0.0000 C   0  0  0  0  0  0  0  0  0  0  0  0
    4.5981    1.3700    0.0000 H   0  0  0  0  0  0  0  0  0  0  0  0
    4.5981   -0.8700    0.0000 H   0  0  0  0  0  0  0  0  0  0  0  0
    6.0010    1.5600    0.0000 H   0  0  0  0  0  0  0  0  0  0  0  0
    6.0010   -1.0600    0.0000 H   0  0  0  0  0  0  0  0  0  0  0  0
    6.3301    1.3700    0.0000 H   0  0  0  0  0  0  0  0  0  0  0  0
    4.8535   -1.6423    0.0000 H   0  0  0  0  0  0  0  0  0  0  0  0
    5.2520   -2.3326    0.0000 H   0  0  0  0  0  0  0  0  0  0  0  0
    7.1962    1.8700    0.0000 H   0  0  0  0  0  0  0  0  0  0  0  0
    2.3100    1.7869    0.0000 H   0  0  0  0  0  0  0  0  0  0  0  0
    1.4631    1.5600    0.0000 H   0  0  0  0  0  0  0  0  0  0  0  0
    1.6900    0.7131    0.0000 H   0  0  0  0  0  0  0  0  0  0  0  0
    2.5560   -1.7131    0.0000 H   0  0  0  0  0  0  0  0  0  0  0  0
    2.3291   -2.5600    0.0000 H   0  0  0  0  0  0  0  0  0  0  0  0
    3.1760   -2.7869    0.0000 H   0  0  0  0  0  0  0  0  0  0  0  0
    5.2181    3.7500    0.0000 H   0  0  0  0  0  0  0  0  0  0  0  0
    4.5981    4.3700    0.0000 H   0  0  0  0  0  0  0  0  0  0  0  0
    3.9781    3.7500    0.0000 H   0  0  0  0  0  0  0  0  0  0  0  0
    9.4651    0.9400    0.0000 H   0  0  0  0  0  0  0  0  0  0  0  0
    8.9282    1.8700    0.0000 H   0  0  0  0  0  0  0  0  0  0  0  0
    6.8862   -4.2869    0.0000 H   0  0  0  0  0  0  0  0  0  0  0  0
    7.7331   -4.0600    0.0000 H   0  0  0  0  0  0  0  0  0  0  0  0
    7.5062   -3.2131    0.0000 H   0  0  0  0  0  0  0  0  0  0  0  0
  1 16  1  0  0  0  0
  1 17  1  0  0  0  0
 13  2  1  1  0  0  0
  2 19  1  0  0  0  0
 14  3  1  6  0  0  0
  3 20  1  0  0  0  0
 15  4  1  6  0  0  0
  4 21  1  0  0  0  0
  5 18  1  0  0  0  0
  5 25  1  0  0  0  0
  6 19  2  0  0  0  0
  7 20  2  0  0  0  0
  8 21  2  0  0  0  0
  9 22  2  0  0  0  0
 10 25  2  0  0  0  0
 17 11  1  1  0  0  0
 11 22  1  0  0  0  0
 11 35  1  0  0  0  0
 12 22  1  0  0  0  0
 12 45  1  0  0  0  0
 12 46  1  0  0  0  0
 13 14  1  0  0  0  0
 13 15  1  0  0  0  0
 13 28  1  0  0  0  0
 14 16  1  0  0  0  0
 14 29  1  0  0  0  0
 15 17  1  0  0  0  0
 15 30  1  0  0  0  0
 16 18  1  1  0  0  0
 16 31  1  0  0  0  0
 17 32  1  0  0  0  0
 18 33  1  0  0  0  0
 18 34  1  0  0  0  0
 19 23  1  0  0  0  0
 20 24  1  0  0  0  0
 21 26  1  0  0  0  0
 23 36  1  0  0  0  0
 23 37  1  0  0  0  0
 23 38  1  0  0  0  0
 24 39  1  0  0  0  0
 24 40  1  0  0  0  0
 24 41  1  0  0  0  0
 25 27  1  0  0  0  0
 26 42  1  0  0  0  0
 26 43  1  0  0  0  0
 26 44  1  0  0  0  0
 27 47  1  0  0  0  0
 27 48  1  0  0  0  0
 27 49  1  0  0  0  0
M  END
> <PUBCHEM_COMPOUND_CID>
23764889

> <PUBCHEM_COMPOUND_CANONICALIZED>
1

> <PUBCHEM_CACTVS_COMPLEXITY>
607

> <PUBCHEM_CACTVS_HBOND_ACCEPTOR>
10

> <PUBCHEM_CACTVS_HBOND_DONOR>
2

> <PUBCHEM_CACTVS_ROTATABLE_BOND>
10

> <PUBCHEM_CACTVS_SUBSKEYS>
AAADceBzPAAAAAAAAAAAAAAAAAAAAAAAAAAkAAAAAAAAAAAAAAAAHgAQAAAACBThgAYDCALABAAIAACQGAAAAAAAAAAAAIAIAAGDAAIAgAAPAAAHFgISAAHwcA4AAAAAAAAAAAAAAAAAAAAAAAAAAAAAAA==

> <PUBCHEM_IUPAC_OPENEYE_NAME>
[(2S,3S,4R,5S,6S)-3,4,5-triacetoxy-6-ureido-tetrahydropyran-2-yl]methyl acetate

> <PUBCHEM_IUPAC_CAS_NAME>
acetic acid [(2S,3S,4R,5S,6S)-3,4,5-triacetyloxy-6-(carbamoylamino)-2-oxanyl]methyl ester

> <PUBCHEM_IUPAC_NAME>
[(2S,3S,4R,5S,6S)-3,4,5-triacetyloxy-6-(carbamoylamino)oxan-2-yl]methyl acetate

> <PUBCHEM_IUPAC_SYSTEMATIC_NAME>
[(2S,3S,4R,5S,6S)-3,4,5-triacetyloxy-6-(aminocarbonylamino)oxan-2-yl]methyl ethanoate

> <PUBCHEM_IUPAC_TRADITIONAL_NAME>
acetic acid [(2S,3S,4R,5S,6S)-3,4,5-triacetoxy-6-ureido-tetrahydropyran-2-yl]methyl ester

> <PUBCHEM_IUPAC_INCHI>
InChI=1S/C15H22N2O10/c1-6(18)23-5-10-11(24-7(2)19)12(25-8(3)20)13(26-9(4)21)14(27-10)17-15(16)22/h10-14H,5H2,1-4H3,(H3,16,17,22)/t10-,11-,12+,13-,14-/m0/s1

> <PUBCHEM_IUPAC_INCHIKEY>
KVXOPTAEZHQKDE-HPCHECBXSA-N

> <PUBCHEM_XLOGP3>
-0.5

> <PUBCHEM_EXACT_MASS>
390.127445

> <PUBCHEM_MOLECULAR_FORMULA>
C15H22N2O10

> <PUBCHEM_MOLECULAR_WEIGHT>
390.34258

> <PUBCHEM_OPENEYE_CAN_SMILES>
CC(=O)OCC1C(C(C(C(O1)NC(=O)N)OC(=O)C)OC(=O)C)OC(=O)C

> <PUBCHEM_OPENEYE_ISO_SMILES>
CC(=O)OC[C@H]1[C@@H]([C@H]([C@@H]([C@H](O1)NC(=O)N)OC(=O)C)OC(=O)C)OC(=O)C

> <PUBCHEM_CACTVS_TPSA>
170

> <PUBCHEM_MONOISOTOPIC_WEIGHT>
390.127445

> <PUBCHEM_TOTAL_CHARGE>
0

> <PUBCHEM_HEAVY_ATOM_COUNT>
27

> <PUBCHEM_ATOM_DEF_STEREO_COUNT>
5

> <PUBCHEM_ATOM_UDEF_STEREO_COUNT>
0

> <PUBCHEM_BOND_DEF_STEREO_COUNT>
0

> <PUBCHEM_BOND_UDEF_STEREO_COUNT>
0

> <PUBCHEM_ISOTOPIC_ATOM_COUNT>
0

> <PUBCHEM_COMPONENT_COUNT>
1

> <PUBCHEM_CACTVS_TAUTO_COUNT>
3

> <PUBCHEM_COORDINATE_TYPE>
1
5
255

> <PUBCHEM_BONDANNOTATIONS>
17  11  5
16  18  5
13  2  5
14  3  6
15  4  6

$$$$
23765214
  -OEChem-11301217342D

 38 40  0     0  0  0  0  0  0999 V2000
    5.4641    1.7500    0.0000 Br  0  0  0  0  0  0  0  0  0  0  0  0
    4.5981    1.2500    0.0000 O   0  0  0  0  0  0  0  0  0  0  0  0
    2.8660    1.2500    0.0000 N   0  0  0  0  0  0  0  0  0  0  0  0
    3.7320    2.7500    0.0000 N   0  0  0  0  0  0  0  0  0  0  0  0
    2.8660   -1.7500    0.0000 C   0  0  0  0  0  0  0  0  0  0  0  0
    2.8660   -2.7500    0.0000 C   0  0  0  0  0  0  0  0  0  0  0  0
    2.8660    0.2500    0.0000 C   0  0  0  0  0  0  0  0  0  0  0  0
    3.7320   -1.2500    0.0000 C   0  0  0  0  0  0  0  0  0  0  0  0
    2.0000   -1.2500    0.0000 C   0  0  0  0  0  0  0  0  0  0  0  0
    3.7320   -0.2500    0.0000 C   0  0  0  0  0  0  0  0  0  0  0  0
    2.0000   -0.2500    0.0000 C   0  0  0  0  0  0  0  0  0  0  0  0
    2.0000   -3.2500    0.0000 C   0  0  0  0  0  0  0  0  0  0  0  0
    3.7320   -3.2500    0.0000 C   0  0  0  0  0  0  0  0  0  0  0  0
    4.5981    3.2500    0.0000 C   0  0  0  0  0  0  0  0  0  0  0  0
    3.7320    1.7500    0.0000 C   0  0  0  0  0  0  0  0  0  0  0  0
    2.0000   -4.2500    0.0000 C   0  0  0  0  0  0  0  0  0  0  0  0
    3.7320   -4.2500    0.0000 C   0  0  0  0  0  0  0  0  0  0  0  0
    2.8660   -4.7500    0.0000 C   0  0  0  0  0  0  0  0  0  0  0  0
    5.4641    2.7500    0.0000 C   0  0  0  0  0  0  0  0  0  0  0  0
    4.5981    4.2500    0.0000 C   0  0  0  0  0  0  0  0  0  0  0  0
    6.3301    3.2500    0.0000 C   0  0  0  0  0  0  0  0  0  0  0  0
    5.4641    4.7500    0.0000 C   0  0  0  0  0  0  0  0  0  0  0  0
    6.3301    4.2500    0.0000 C   0  0  0  0  0  0  0  0  0  0  0  0
    4.2690   -1.5600    0.0000 H   0  0  0  0  0  0  0  0  0  0  0  0
    1.4631   -1.5600    0.0000 H   0  0  0  0  0  0  0  0  0  0  0  0
    4.2690    0.0600    0.0000 H   0  0  0  0  0  0  0  0  0  0  0  0
    1.4631    0.0600    0.0000 H   0  0  0  0  0  0  0  0  0  0  0  0
    1.4631   -2.9400    0.0000 H   0  0  0  0  0  0  0  0  0  0  0  0
    4.2690   -2.9400    0.0000 H   0  0  0  0  0  0  0  0  0  0  0  0
    2.3291    1.5600    0.0000 H   0  0  0  0  0  0  0  0  0  0  0  0
    3.1951    3.0600    0.0000 H   0  0  0  0  0  0  0  0  0  0  0  0
    1.4631   -4.5600    0.0000 H   0  0  0  0  0  0  0  0  0  0  0  0
    4.2690   -4.5600    0.0000 H   0  0  0  0  0  0  0  0  0  0  0  0
    2.8660   -5.3700    0.0000 H   0  0  0  0  0  0  0  0  0  0  0  0
    4.0611    4.5600    0.0000 H   0  0  0  0  0  0  0  0  0  0  0  0
    6.8671    2.9400    0.0000 H   0  0  0  0  0  0  0  0  0  0  0  0
    5.4641    5.3700    0.0000 H   0  0  0  0  0  0  0  0  0  0  0  0
    6.8671    4.5600    0.0000 H   0  0  0  0  0  0  0  0  0  0  0  0
  1 19  1  0  0  0  0
  2 15  2  0  0  0  0
  3  7  1  0  0  0  0
  3 15  1  0  0  0  0
  3 30  1  0  0  0  0
  4 14  1  0  0  0  0
  4 15  1  0  0  0  0
  4 31  1  0  0  0  0
  5  6  1  0  0  0  0
  5  8  2  0  0  0  0
  5  9  1  0  0  0  0
  6 12  2  0  0  0  0
  6 13  1  0  0  0  0
  7 10  2  0  0  0  0
  7 11  1  0  0  0  0
  8 10  1  0  0  0  0
  8 24  1  0  0  0  0
  9 11  2  0  0  0  0
  9 25  1  0  0  0  0
 10 26  1  0  0  0  0
 11 27  1  0  0  0  0
 12 16  1  0  0  0  0
 12 28  1  0  0  0  0
 13 17  2  0  0  0  0
 13 29  1  0  0  0  0
 14 19  1  0  0  0  0
 14 20  2  0  0  0  0
 16 18  2  0  0  0  0
 16 32  1  0  0  0  0
 17 18  1  0  0  0  0
 17 33  1  0  0  0  0
 18 34  1  0  0  0  0
 19 21  2  0  0  0  0
 20 22  1  0  0  0  0
 20 35  1  0  0  0  0
 21 23  1  0  0  0  0
 21 36  1  0  0  0  0
 22 23  2  0  0  0  0
 22 37  1  0  0  0  0
 23 38  1  0  0  0  0
M  END
> <PUBCHEM_COMPOUND_CID>
23765214

> <PUBCHEM_COMPOUND_CANONICALIZED>
1

> <PUBCHEM_CACTVS_COMPLEXITY>
376

> <PUBCHEM_CACTVS_HBOND_ACCEPTOR>
1

> <PUBCHEM_CACTVS_HBOND_DONOR>
2

> <PUBCHEM_CACTVS_ROTATABLE_BOND>
3

> <PUBCHEM_CACTVS_SUBSKEYS>
AAADccB7IAAAEAAAAAAAAAAAAAAAAAAAAAAwYMAAAAAAAAABUAAAHgBQAAABrAiBGAAxwILAAACIAiRCUACCAAAhAgQIiAAAZKiIICLAkZGEIAholAJIyjcQgMAOiAAAAAAAAAgQAAAAAAAAEAAAAAAAAA==

> <PUBCHEM_IUPAC_OPENEYE_NAME>
1-(2-bromophenyl)-3-(4-phenylphenyl)urea

> <PUBCHEM_IUPAC_CAS_NAME>
1-(2-bromophenyl)-3-(4-phenylphenyl)urea

> <PUBCHEM_IUPAC_NAME>
1-(2-bromophenyl)-3-(4-phenylphenyl)urea

> <PUBCHEM_IUPAC_SYSTEMATIC_NAME>
1-(2-bromophenyl)-3-(4-phenylphenyl)urea

> <PUBCHEM_IUPAC_TRADITIONAL_NAME>
1-(2-bromophenyl)-3-(4-phenylphenyl)urea

> <PUBCHEM_IUPAC_INCHI>
InChI=1S/C19H15BrN2O/c20-17-8-4-5-9-18(17)22-19(23)21-16-12-10-15(11-13-16)14-6-2-1-3-7-14/h1-13H,(H2,21,22,23)

> <PUBCHEM_IUPAC_INCHIKEY>
MGIXGFVKPNXJLJ-UHFFFAOYSA-N

> <PUBCHEM_XLOGP3>
4.4

> <PUBCHEM_EXACT_MASS>
366.036775

> <PUBCHEM_MOLECULAR_FORMULA>
C19H15BrN2O

> <PUBCHEM_MOLECULAR_WEIGHT>
367.2392

> <PUBCHEM_OPENEYE_CAN_SMILES>
C1=CC=C(C=C1)C2=CC=C(C=C2)NC(=O)NC3=CC=CC=C3Br

> <PUBCHEM_OPENEYE_ISO_SMILES>
C1=CC=C(C=C1)C2=CC=C(C=C2)NC(=O)NC3=CC=CC=C3Br

> <PUBCHEM_CACTVS_TPSA>
41.1

> <PUBCHEM_MONOISOTOPIC_WEIGHT>
366.036775

> <PUBCHEM_TOTAL_CHARGE>
0

> <PUBCHEM_HEAVY_ATOM_COUNT>
23

> <PUBCHEM_ATOM_DEF_STEREO_COUNT>
0

> <PUBCHEM_ATOM_UDEF_STEREO_COUNT>
0

> <PUBCHEM_BOND_DEF_STEREO_COUNT>
0

> <PUBCHEM_BOND_UDEF_STEREO_COUNT>
0

> <PUBCHEM_ISOTOPIC_ATOM_COUNT>
0

> <PUBCHEM_COMPONENT_COUNT>
1

> <PUBCHEM_CACTVS_TAUTO_COUNT>
3

> <PUBCHEM_COORDINATE_TYPE>
1
5
255

> <PUBCHEM_BONDANNOTATIONS>
12  16  8
13  17  8
14  19  8
14  20  8
16  18  8
17  18  8
19  21  8
20  22  8
21  23  8
22  23  8
5  8  8
5  9  8
6  12  8
6  13  8
7  10  8
7  11  8
8  10  8
9  11  8

$$$$
23765421
  -OEChem-11301217342D

 50 50  0     1  0  0  0  0  0999 V2000
    6.3301   -0.2500    0.0000 O   0  0  0  0  0  0  0  0  0  0  0  0
    3.7320    1.2500    0.0000 O   0  0  0  0  0  0  0  0  0  0  0  0
    3.7320   -0.7500    0.0000 O   0  0  0  0  0  0  0  0  0  0  0  0
    7.1962    1.2500    0.0000 O   0  0  0  0  0  0  0  0  0  0  0  0
    6.3301   -2.2500    0.0000 O   0  0  0  0  0  0  0  0  0  0  0  0
    7.1962    2.2500    0.0000 O   0  0  0  0  0  0  0  0  0  0  0  0
    2.8660   -0.2500    0.0000 O   0  0  0  0  0  0  0  0  0  0  0  0
    4.5981   -2.2500    0.0000 O   0  0  0  0  0  0  0  0  0  0  0  0
    8.0622   -0.2500    0.0000 O   0  0  0  0  0  0  0  0  0  0  0  0
    5.4641   -3.7500    0.0000 O   0  0  0  0  0  0  0  0  0  0  0  0
    5.4641    2.2500    0.0000 N   0  0  0  0  0  0  0  0  0  0  0  0
    4.5981    0.7500    0.0000 C   0  0  1  0  0  0  0  0  0  0  0  0
    5.4641    1.2500    0.0000 C   0  0  1  0  0  0  0  0  0  0  0  0
    4.5981   -0.2500    0.0000 C   0  0  2  0  0  0  0  0  0  0  0  0
    5.4641   -0.7500    0.0000 C   0  0  2  0  0  0  0  0  0  0  0  0
    6.3301    0.7500    0.0000 C   0  0  3  0  0  0  0  0  0  0  0  0
    5.4641   -1.7500    0.0000 C   0  0  0  0  0  0  0  0  0  0  0  0
    6.3301    2.7500    0.0000 C   0  0  0  0  0  0  0  0  0  0  0  0
    2.8660    0.7500    0.0000 C   0  0  0  0  0  0  0  0  0  0  0  0
    3.7320   -1.7500    0.0000 C   0  0  0  0  0  0  0  0  0  0  0  0
    8.0622    0.7500    0.0000 C   0  0  0  0  0  0  0  0  0  0  0  0
    6.3301    3.7500    0.0000 C   0  0  0  0  0  0  0  0  0  0  0  0
    2.0000    1.2500    0.0000 C   0  0  0  0  0  0  0  0  0  0  0  0
    2.8660   -2.2500    0.0000 C   0  0  0  0  0  0  0  0  0  0  0  0
    6.3301   -3.2500    0.0000 C   0  0  0  0  0  0  0  0  0  0  0  0
    8.9282    1.2500    0.0000 C   0  0  0  0  0  0  0  0  0  0  0  0
    7.1962   -3.7500    0.0000 C   0  0  0  0  0  0  0  0  0  0  0  0
    4.5981    1.3700    0.0000 H   0  0  0  0  0  0  0  0  0  0  0  0
    6.0010    1.5600    0.0000 H   0  0  0  0  0  0  0  0  0  0  0  0
    4.5981   -0.8700    0.0000 H   0  0  0  0  0  0  0  0  0  0  0  0
    6.0010   -1.0600    0.0000 H   0  0  0  0  0  0  0  0  0  0  0  0
    6.3301    1.3700    0.0000 H   0  0  0  0  0  0  0  0  0  0  0  0
    4.8535   -1.6423    0.0000 H   0  0  0  0  0  0  0  0  0  0  0  0
    5.2520   -2.3326    0.0000 H   0  0  0  0  0  0  0  0  0  0  0  0
    4.9272    2.5600    0.0000 H   0  0  0  0  0  0  0  0  0  0  0  0
    6.9501    3.7500    0.0000 H   0  0  0  0  0  0  0  0  0  0  0  0
    6.3301    4.3700    0.0000 H   0  0  0  0  0  0  0  0  0  0  0  0
    5.7101    3.7500    0.0000 H   0  0  0  0  0  0  0  0  0  0  0  0
    2.3100    1.7869    0.0000 H   0  0  0  0  0  0  0  0  0  0  0  0
    1.4631    1.5600    0.0000 H   0  0  0  0  0  0  0  0  0  0  0  0
    1.6900    0.7131    0.0000 H   0  0  0  0  0  0  0  0  0  0  0  0
    2.5560   -1.7131    0.0000 H   0  0  0  0  0  0  0  0  0  0  0  0
    2.3291   -2.5600    0.0000 H   0  0  0  0  0  0  0  0  0  0  0  0
    3.1760   -2.7869    0.0000 H   0  0  0  0  0  0  0  0  0  0  0  0
    9.2382    0.7131    0.0000 H   0  0  0  0  0  0  0  0  0  0  0  0
    9.4651    1.5600    0.0000 H   0  0  0  0  0  0  0  0  0  0  0  0
    8.6182    1.7869    0.0000 H   0  0  0  0  0  0  0  0  0  0  0  0
    6.8862   -4.2869    0.0000 H   0  0  0  0  0  0  0  0  0  0  0  0
    7.7331   -4.0600    0.0000 H   0  0  0  0  0  0  0  0  0  0  0  0
    7.5062   -3.2131    0.0000 H   0  0  0  0  0  0  0  0  0  0  0  0
  1 15  1  0  0  0  0
  1 16  1  0  0  0  0
 12  2  1  1  0  0  0
  2 19  1  0  0  0  0
 14  3  1  6  0  0  0
  3 20  1  0  0  0  0
  4 16  1  0  0  0  0
  4 21  1  0  0  0  0
  5 17  1  0  0  0  0
  5 25  1  0  0  0  0
  6 18  2  0  0  0  0
  7 19  2  0  0  0  0
  8 20  2  0  0  0  0
  9 21  2  0  0  0  0
 10 25  2  0  0  0  0
 13 11  1  6  0  0  0
 11 18  1  0  0  0  0
 11 35  1  0  0  0  0
 12 13  1  0  0  0  0
 12 14  1  0  0  0  0
 12 28  1  0  0  0  0
 13 16  1  0  0  0  0
 13 29  1  0  0  0  0
 14 15  1  0  0  0  0
 14 30  1  0  0  0  0
 15 17  1  1  0  0  0
 15 31  1  0  0  0  0
 16 32  1  0  0  0  0
 17 33  1  0  0  0  0
 17 34  1  0  0  0  0
 18 22  1  0  0  0  0
 19 23  1  0  0  0  0
 20 24  1  0  0  0  0
 21 26  1  0  0  0  0
 22 36  1  0  0  0  0
 22 37  1  0  0  0  0
 22 38  1  0  0  0  0
 23 39  1  0  0  0  0
 23 40  1  0  0  0  0
 23 41  1  0  0  0  0
 24 42  1  0  0  0  0
 24 43  1  0  0  0  0
 24 44  1  0  0  0  0
 25 27  1  0  0  0  0
 26 45  1  0  0  0  0
 26 46  1  0  0  0  0
 26 47  1  0  0  0  0
 27 48  1  0  0  0  0
 27 49  1  0  0  0  0
 27 50  1  0  0  0  0
M  END
> <PUBCHEM_COMPOUND_CID>
23765421

> <PUBCHEM_COMPOUND_CANONICALIZED>
1

> <PUBCHEM_CACTVS_COMPLEXITY>
604

> <PUBCHEM_CACTVS_HBOND_ACCEPTOR>
10

> <PUBCHEM_CACTVS_HBOND_DONOR>
1

> <PUBCHEM_CACTVS_ROTATABLE_BOND>
10

> <PUBCHEM_CACTVS_SUBSKEYS>
AAADceB6PAAAAAAAAAAAAAAAAAAAAAAAAAAkAAAAAAAAAAAAAAAAHgAQAAAACDzxgAcCCALABAAIAAGQGAAAAAAAAAAAAIAIAAATAAIAgAAnAAAHFgCWAAHwcA8AAAAAAAAAAAAAAAAAAAAAAAAAAAAAAA==

> <PUBCHEM_IUPAC_OPENEYE_NAME>
[(2S,3R,4S,5S)-5-acetamido-3,4,6-triacetoxy-tetrahydropyran-2-yl]methyl acetate

> <PUBCHEM_IUPAC_CAS_NAME>
acetic acid [(2S,3R,4S,5S)-5-acetamido-3,4,6-triacetyloxy-2-oxanyl]methyl ester

> <PUBCHEM_IUPAC_NAME>
[(2S,3R,4S,5S)-5-acetamido-3,4,6-triacetyloxyoxan-2-yl]methyl acetate

> <PUBCHEM_IUPAC_SYSTEMATIC_NAME>
[(2S,3R,4S,5S)-5-acetamido-3,4,6-triacetyloxy-oxan-2-yl]methyl ethanoate

> <PUBCHEM_IUPAC_TRADITIONAL_NAME>
acetic acid [(2S,3R,4S,5S)-5-acetamido-3,4,6-triacetoxy-tetrahydropyran-2-yl]methyl ester

> <PUBCHEM_IUPAC_INCHI>
InChI=1S/C16H23NO10/c1-7(18)17-13-15(25-10(4)21)14(24-9(3)20)12(6-23-8(2)19)27-16(13)26-11(5)22/h12-16H,6H2,1-5H3,(H,17,18)/t12-,13-,14-,15-,16?/m0/s1

> <PUBCHEM_IUPAC_INCHIKEY>
OVPIZHVSWNOZMN-XZZCZSIRSA-N

> <PUBCHEM_XLOGP3>
0.1

> <PUBCHEM_EXACT_MASS>
389.132196

> <PUBCHEM_MOLECULAR_FORMULA>
C16H23NO10

> <PUBCHEM_MOLECULAR_WEIGHT>
389.35452

> <PUBCHEM_OPENEYE_CAN_SMILES>
CC(=O)NC1C(C(C(OC1OC(=O)C)COC(=O)C)OC(=O)C)OC(=O)C

> <PUBCHEM_OPENEYE_ISO_SMILES>
CC(=O)N[C@H]1[C@@H]([C@H]([C@@H](OC1OC(=O)C)COC(=O)C)OC(=O)C)OC(=O)C

> <PUBCHEM_CACTVS_TPSA>
144

> <PUBCHEM_MONOISOTOPIC_WEIGHT>
389.132196

> <PUBCHEM_TOTAL_CHARGE>
0

> <PUBCHEM_HEAVY_ATOM_COUNT>
27

> <PUBCHEM_ATOM_DEF_STEREO_COUNT>
4

> <PUBCHEM_ATOM_UDEF_STEREO_COUNT>
1

> <PUBCHEM_BOND_DEF_STEREO_COUNT>
0

> <PUBCHEM_BOND_UDEF_STEREO_COUNT>
0

> <PUBCHEM_ISOTOPIC_ATOM_COUNT>
0

> <PUBCHEM_COMPONENT_COUNT>
1

> <PUBCHEM_CACTVS_TAUTO_COUNT>
2

> <PUBCHEM_COORDINATE_TYPE>
1
5
255

> <PUBCHEM_BONDANNOTATIONS>
13  11  6
15  17  5
12  2  5
14  3  6
16  4  3

$$$$
23771040
  -OEChem-11301217342D

 57 58  0     1  0  0  0  0  0999 V2000
    5.4641   -0.2500    0.0000 O   0  0  0  0  0  0  0  0  0  0  0  0
    8.0622    1.2500    0.0000 O   0  0  0  0  0  0  0  0  0  0  0  0
    8.0622   -0.7500    0.0000 O   0  0  0  0  0  0  0  0  0  0  0  0
    5.4641   -2.2500    0.0000 O   0  0  0  0  0  0  0  0  0  0  0  0
    8.0622    2.2500    0.0000 O   0  0  0  0  0  0  0  0  0  0  0  0
    3.7320   -0.2500    0.0000 O   0  0  0  0  0  0  0  0  0  0  0  0
    8.9282   -0.2500    0.0000 O   0  0  0  0  0  0  0  0  0  0  0  0
    7.1962   -2.2500    0.0000 O   0  0  0  0  0  0  0  0  0  0  0  0
    2.0000    2.7500    0.0000 O   0  0  0  0  0  0  0  0  0  0  0  0
    6.3301   -3.7500    0.0000 O   0  0  0  0  0  0  0  0  0  0  0  0
    6.3301    2.2500    0.0000 N   0  0  0  0  0  0  0  0  0  0  0  0
    4.5981    1.2500    0.0000 N   0  0  0  0  0  0  0  0  0  0  0  0
    2.8660    1.2500    0.0000 N   0  0  0  0  0  0  0  0  0  0  0  0
    6.3301    1.2500    0.0000 C   0  0  1  0  0  0  0  0  0  0  0  0
    7.1962    0.7500    0.0000 C   0  0  1  0  0  0  0  0  0  0  0  0
    7.1962   -0.2500    0.0000 C   0  0  2  0  0  0  0  0  0  0  0  0
    5.4641    0.7500    0.0000 C   0  0  2  0  0  0  0  0  0  0  0  0
    6.3301   -0.7500    0.0000 C   0  0  2  0  0  0  0  0  0  0  0  0
    6.3301   -1.7500    0.0000 C   0  0  0  0  0  0  0  0  0  0  0  0
    4.5981    2.2500    0.0000 C   0  0  0  0  0  0  0  0  0  0  0  0
    7.1962    2.7500    0.0000 C   0  0  0  0  0  0  0  0  0  0  0  0
    3.7320    0.7500    0.0000 C   0  0  0  0  0  0  0  0  0  0  0  0
    8.9282    0.7500    0.0000 C   0  0  0  0  0  0  0  0  0  0  0  0
    8.0622   -1.7500    0.0000 C   0  0  0  0  0  0  0  0  0  0  0  0
    3.7320    2.7500    0.0000 C   0  0  0  0  0  0  0  0  0  0  0  0
    7.1962    3.7500    0.0000 C   0  0  0  0  0  0  0  0  0  0  0  0
    2.8660    2.2500    0.0000 C   0  0  0  0  0  0  0  0  0  0  0  0
    9.7942    1.2500    0.0000 C   0  0  0  0  0  0  0  0  0  0  0  0
    8.9282   -2.2500    0.0000 C   0  0  0  0  0  0  0  0  0  0  0  0
    5.4641   -3.2500    0.0000 C   0  0  0  0  0  0  0  0  0  0  0  0
    4.5981   -3.7500    0.0000 C   0  0  0  0  0  0  0  0  0  0  0  0
    2.0000    3.7500    0.0000 C   0  0  0  0  0  0  0  0  0  0  0  0
    6.8671    1.5600    0.0000 H   0  0  0  0  0  0  0  0  0  0  0  0
    7.7331    0.4400    0.0000 H   0  0  0  0  0  0  0  0  0  0  0  0
    7.7331    0.0600    0.0000 H   0  0  0  0  0  0  0  0  0  0  0  0
    5.4641    1.3700    0.0000 H   0  0  0  0  0  0  0  0  0  0  0  0
    5.7932   -1.0600    0.0000 H   0  0  0  0  0  0  0  0  0  0  0  0
    6.5422   -2.3326    0.0000 H   0  0  0  0  0  0  0  0  0  0  0  0
    6.9407   -1.6423    0.0000 H   0  0  0  0  0  0  0  0  0  0  0  0
    5.7932    2.5600    0.0000 H   0  0  0  0  0  0  0  0  0  0  0  0
    5.1350    2.5600    0.0000 H   0  0  0  0  0  0  0  0  0  0  0  0
    3.7320    3.3700    0.0000 H   0  0  0  0  0  0  0  0  0  0  0  0
    7.8162    3.7500    0.0000 H   0  0  0  0  0  0  0  0  0  0  0  0
    7.1962    4.3700    0.0000 H   0  0  0  0  0  0  0  0  0  0  0  0
    6.5762    3.7500    0.0000 H   0  0  0  0  0  0  0  0  0  0  0  0
   10.1042    0.7131    0.0000 H   0  0  0  0  0  0  0  0  0  0  0  0
   10.3312    1.5600    0.0000 H   0  0  0  0  0  0  0  0  0  0  0  0
    9.4842    1.7869    0.0000 H   0  0  0  0  0  0  0  0  0  0  0  0
    8.6182   -2.7869    0.0000 H   0  0  0  0  0  0  0  0  0  0  0  0
    9.4651   -2.5600    0.0000 H   0  0  0  0  0  0  0  0  0  0  0  0
    9.2382   -1.7131    0.0000 H   0  0  0  0  0  0  0  0  0  0  0  0
    4.2881   -3.2131    0.0000 H   0  0  0  0  0  0  0  0  0  0  0  0
    4.0611   -4.0600    0.0000 H   0  0  0  0  0  0  0  0  0  0  0  0
    4.9081   -4.2869    0.0000 H   0  0  0  0  0  0  0  0  0  0  0  0
    2.6200    3.7500    0.0000 H   0  0  0  0  0  0  0  0  0  0  0  0
    2.0000    4.3700    0.0000 H   0  0  0  0  0  0  0  0  0  0  0  0
    1.3800    3.7500    0.0000 H   0  0  0  0  0  0  0  0  0  0  0  0
  1 17  1  0  0  0  0
  1 18  1  0  0  0  0
 15  2  1  6  0  0  0
  2 23  1  0  0  0  0
 16  3  1  1  0  0  0
  3 24  1  0  0  0  0
  4 19  1  0  0  0  0
  4 30  1  0  0  0  0
  5 21  2  0  0  0  0
  6 22  2  0  0  0  0
  7 23  2  0  0  0  0
  8 24  2  0  0  0  0
  9 27  1  0  0  0  0
  9 32  1  0  0  0  0
 10 30  2  0  0  0  0
 14 11  1  1  0  0  0
 11 21  1  0  0  0  0
 11 40  1  0  0  0  0
 17 12  1  6  0  0  0
 12 20  1  0  0  0  0
 12 22  1  0  0  0  0
 13 22  1  0  0  0  0
 13 27  2  0  0  0  0
 14 15  1  0  0  0  0
 14 17  1  0  0  0  0
 14 33  1  0  0  0  0
 15 16  1  0  0  0  0
 15 34  1  0  0  0  0
 16 18  1  0  0  0  0
 16 35  1  0  0  0  0
 17 36  1  0  0  0  0
 18 19  1  6  0  0  0
 18 37  1  0  0  0  0
 19 38  1  0  0  0  0
 19 39  1  0  0  0  0
 20 25  2  0  0  0  0
 20 41  1  0  0  0  0
 21 26  1  0  0  0  0
 23 28  1  0  0  0  0
 24 29  1  0  0  0  0
 25 27  1  0  0  0  0
 25 42  1  0  0  0  0
 26 43  1  0  0  0  0
 26 44  1  0  0  0  0
 26 45  1  0  0  0  0
 28 46  1  0  0  0  0
 28 47  1  0  0  0  0
 28 48  1  0  0  0  0
 29 49  1  0  0  0  0
 29 50  1  0  0  0  0
 29 51  1  0  0  0  0
 30 31  1  0  0  0  0
 31 52  1  0  0  0  0
 31 53  1  0  0  0  0
 31 54  1  0  0  0  0
 32 55  1  0  0  0  0
 32 56  1  0  0  0  0
 32 57  1  0  0  0  0
M  END
> <PUBCHEM_COMPOUND_CID>
23771040

> <PUBCHEM_COMPOUND_CANONICALIZED>
1

> <PUBCHEM_CACTVS_COMPLEXITY>
839

> <PUBCHEM_CACTVS_HBOND_ACCEPTOR>
10

> <PUBCHEM_CACTVS_HBOND_DONOR>
1

> <PUBCHEM_CACTVS_ROTATABLE_BOND>
10

> <PUBCHEM_CACTVS_SUBSKEYS>
AAADceB7PAAAAAAAAAAAAAAAAAAAAAAAAAAkQAAAAAAAAAAAAAAAHgAQAAAACDzhgAYDCAPABACoACH2XAAAAAAAAgAIAIAYABCDRAIAoAAfAAAHFgKSIAHwUAMAAAAAAAAAAAAAAAAAAAAAAAAAAAAAAA==

> <PUBCHEM_IUPAC_OPENEYE_NAME>
[(2S,3R,4S,5S,6S)-5-acetamido-3,4-diacetoxy-6-(4-methoxy-2-oxo-pyrimidin-1-yl)tetrahydropyran-2-yl]methyl acetate

> <PUBCHEM_IUPAC_CAS_NAME>
acetic acid [(2S,3R,4S,5S,6S)-5-acetamido-3,4-diacetyloxy-6-(4-methoxy-2-oxo-1-pyrimidinyl)-2-oxanyl]methyl ester

> <PUBCHEM_IUPAC_NAME>
[(2S,3R,4S,5S,6S)-5-acetamido-3,4-diacetyloxy-6-(4-methoxy-2-oxopyrimidin-1-yl)oxan-2-yl]methyl acetate

> <PUBCHEM_IUPAC_SYSTEMATIC_NAME>
[(2S,3R,4S,5S,6S)-5-acetamido-3,4-diacetyloxy-6-(4-methoxy-2-oxidanylidene-pyrimidin-1-yl)oxan-2-yl]methyl ethanoate

> <PUBCHEM_IUPAC_TRADITIONAL_NAME>
acetic acid [(2S,3R,4S,5S,6S)-5-acetamido-3,4-diacetoxy-6-(2-keto-4-methoxy-pyrimidin-1-yl)tetrahydropyran-2-yl]methyl ester

> <PUBCHEM_IUPAC_INCHI>
InChI=1S/C19H25N3O10/c1-9(23)20-15-17(31-12(4)26)16(30-11(3)25)13(8-29-10(2)24)32-18(15)22-7-6-14(28-5)21-19(22)27/h6-7,13,15-18H,8H2,1-5H3,(H,20,23)/t13-,15-,16-,17-,18-/m0/s1

> <PUBCHEM_IUPAC_INCHIKEY>
HDCAEEYVDLYODH-HILJTLORSA-N

> <PUBCHEM_XLOGP3>
-0.4

> <PUBCHEM_EXACT_MASS>
455.153994

> <PUBCHEM_MOLECULAR_FORMULA>
C19H25N3O10

> <PUBCHEM_MOLECULAR_WEIGHT>
455.4159

> <PUBCHEM_OPENEYE_CAN_SMILES>
CC(=O)NC1C(C(C(OC1N2C=CC(=NC2=O)OC)COC(=O)C)OC(=O)C)OC(=O)C

> <PUBCHEM_OPENEYE_ISO_SMILES>
CC(=O)N[C@H]1[C@@H]([C@H]([C@@H](O[C@@H]1N2C=CC(=NC2=O)OC)COC(=O)C)OC(=O)C)OC(=O)C

> <PUBCHEM_CACTVS_TPSA>
159

> <PUBCHEM_MONOISOTOPIC_WEIGHT>
455.153994

> <PUBCHEM_TOTAL_CHARGE>
0

> <PUBCHEM_HEAVY_ATOM_COUNT>
32

> <PUBCHEM_ATOM_DEF_STEREO_COUNT>
5

> <PUBCHEM_ATOM_UDEF_STEREO_COUNT>
0

> <PUBCHEM_BOND_DEF_STEREO_COUNT>
0

> <PUBCHEM_BOND_UDEF_STEREO_COUNT>
0

> <PUBCHEM_ISOTOPIC_ATOM_COUNT>
0

> <PUBCHEM_COMPONENT_COUNT>
1

> <PUBCHEM_CACTVS_TAUTO_COUNT>
2

> <PUBCHEM_COORDINATE_TYPE>
1
5
255

> <PUBCHEM_BONDANNOTATIONS>
14  11  5
17  12  6
12  20  8
12  22  8
13  22  8
13  27  8
18  19  6
15  2  6
20  25  8
25  27  8
16  3  5

$$$$
