42179339
  -OEChem-12041212012D

 35 36  0     0  0  0  0  0  0999 V2000
    5.4641   -0.2500    0.0000 O   0  0  0  0  0  0  0  0  0  0  0  0
    8.0622    1.2500    0.0000 N   0  3  0  0  0  0  0  0  0  0  0  0
    7.1962   -0.2500    0.0000 C   0  0  0  0  0  0  0  0  0  0  0  0
    6.3301   -0.7500    0.0000 C   0  0  0  0  0  0  0  0  0  0  0  0
    7.1962    0.7500    0.0000 C   0  0  0  0  0  0  0  0  0  0  0  0
    3.7320   -0.2500    0.0000 C   0  0  0  0  0  0  0  0  0  0  0  0
    4.5981   -0.7500    0.0000 C   0  0  0  0  0  0  0  0  0  0  0  0
    3.7320    0.7500    0.0000 C   0  0  0  0  0  0  0  0  0  0  0  0
    8.0622   -0.7500    0.0000 C   0  0  0  0  0  0  0  0  0  0  0  0
    2.8660    1.2500    0.0000 C   0  0  0  0  0  0  0  0  0  0  0  0
    6.3301   -1.7500    0.0000 C   0  0  0  0  0  0  0  0  0  0  0  0
    2.8660   -0.7500    0.0000 C   0  0  0  0  0  0  0  0  0  0  0  0
    8.0622   -1.7500    0.0000 C   0  0  0  0  0  0  0  0  0  0  0  0
    7.1962   -2.2500    0.0000 C   0  0  0  0  0  0  0  0  0  0  0  0
    2.0000    0.7500    0.0000 C   0  0  0  0  0  0  0  0  0  0  0  0
    2.0000   -0.2500    0.0000 C   0  0  0  0  0  0  0  0  0  0  0  0
    2.8660    2.2500    0.0000 C   0  0  0  0  0  0  0  0  0  0  0  0
    6.9841    1.3326    0.0000 H   0  0  0  0  0  0  0  0  0  0  0  0
    6.5856    0.6423    0.0000 H   0  0  0  0  0  0  0  0  0  0  0  0
    4.1996   -1.2250    0.0000 H   0  0  0  0  0  0  0  0  0  0  0  0
    4.9966   -1.2250    0.0000 H   0  0  0  0  0  0  0  0  0  0  0  0
    4.2690    1.0600    0.0000 H   0  0  0  0  0  0  0  0  0  0  0  0
    8.5991   -0.4400    0.0000 H   0  0  0  0  0  0  0  0  0  0  0  0
    5.7932   -2.0600    0.0000 H   0  0  0  0  0  0  0  0  0  0  0  0
    2.8660   -1.3700    0.0000 H   0  0  0  0  0  0  0  0  0  0  0  0
    8.5991    1.5600    0.0000 H   0  0  0  0  0  0  0  0  0  0  0  0
    7.7522    1.7869    0.0000 H   0  0  0  0  0  0  0  0  0  0  0  0
    8.3722    0.7131    0.0000 H   0  0  0  0  0  0  0  0  0  0  0  0
    8.5991   -2.0600    0.0000 H   0  0  0  0  0  0  0  0  0  0  0  0
    1.4631    1.0600    0.0000 H   0  0  0  0  0  0  0  0  0  0  0  0
    7.1962   -2.8700    0.0000 H   0  0  0  0  0  0  0  0  0  0  0  0
    1.4631   -0.5600    0.0000 H   0  0  0  0  0  0  0  0  0  0  0  0
    3.4860    2.2500    0.0000 H   0  0  0  0  0  0  0  0  0  0  0  0
    2.8660    2.8700    0.0000 H   0  0  0  0  0  0  0  0  0  0  0  0
    2.2460    2.2500    0.0000 H   0  0  0  0  0  0  0  0  0  0  0  0
  1  4  1  0  0  0  0
  1  7  1  0  0  0  0
  2  5  1  0  0  0  0
  2 26  1  0  0  0  0
  2 27  1  0  0  0  0
  2 28  1  0  0  0  0
  3  4  1  0  0  0  0
  3  5  1  0  0  0  0
  3  9  2  0  0  0  0
  4 11  2  0  0  0  0
  5 18  1  0  0  0  0
  5 19  1  0  0  0  0
  6  7  1  0  0  0  0
  6  8  1  0  0  0  0
  6 12  2  0  0  0  0
  7 20  1  0  0  0  0
  7 21  1  0  0  0  0
  8 10  2  0  0  0  0
  8 22  1  0  0  0  0
  9 13  1  0  0  0  0
  9 23  1  0  0  0  0
 10 15  1  0  0  0  0
 10 17  1  0  0  0  0
 11 14  1  0  0  0  0
 11 24  1  0  0  0  0
 12 16  1  0  0  0  0
 12 25  1  0  0  0  0
 13 14  2  0  0  0  0
 13 29  1  0  0  0  0
 14 31  1  0  0  0  0
 15 16  2  0  0  0  0
 15 30  1  0  0  0  0
 16 32  1  0  0  0  0
 17 33  1  0  0  0  0
 17 34  1  0  0  0  0
 17 35  1  0  0  0  0
M  CHG  1   2   1
M  END
> <PUBCHEM_COMPOUND_CID>
42179339

> <PUBCHEM_COMPOUND_CANONICALIZED>
1

> <PUBCHEM_CACTVS_COMPLEXITY>
219

> <PUBCHEM_CACTVS_HBOND_ACCEPTOR>
1

> <PUBCHEM_CACTVS_HBOND_DONOR>
1

> <PUBCHEM_CACTVS_ROTATABLE_BOND>
4

> <PUBCHEM_CACTVS_SUBSKEYS>
AAADceByIAAAAAAAAAAAAAAAAAAAAAAAAAAwYAAAAAAAAAABQAAAHgAQAAAADAThmAYyBoBABACAAiBCAACCCAAgIAAIiIAGDIgMJiKEsRuCOCDmwBEIqAeQwGAOAAACAAAIAAAAAAQAABAAAAAAAAAAAA==

> <PUBCHEM_IUPAC_OPENEYE_NAME>
[2-(m-tolylmethoxy)phenyl]methylammonium

> <PUBCHEM_IUPAC_CAS_NAME>
[2-[(3-methylphenyl)methoxy]phenyl]methylammonium

> <PUBCHEM_IUPAC_NAME>
[2-[(3-methylphenyl)methoxy]phenyl]methylazanium

> <PUBCHEM_IUPAC_SYSTEMATIC_NAME>
[2-[(3-methylphenyl)methoxy]phenyl]methylazanium

> <PUBCHEM_IUPAC_TRADITIONAL_NAME>
[2-(3-methylbenzyl)oxybenzyl]ammonium

> <PUBCHEM_IUPAC_INCHI>
InChI=1S/C15H17NO/c1-12-5-4-6-13(9-12)11-17-15-8-3-2-7-14(15)10-16/h2-9H,10-11,16H2,1H3/p+1

> <PUBCHEM_IUPAC_INCHIKEY>
BVNIAXYZXFKRDN-UHFFFAOYSA-O

> <PUBCHEM_XLOGP3>
1.8

> <PUBCHEM_EXACT_MASS>
228.138839

> <PUBCHEM_MOLECULAR_FORMULA>
C15H18NO+

> <PUBCHEM_MOLECULAR_WEIGHT>
228.30952

> <PUBCHEM_OPENEYE_CAN_SMILES>
CC1=CC(=CC=C1)COC2=CC=CC=C2C[NH3+]

> <PUBCHEM_OPENEYE_ISO_SMILES>
CC1=CC(=CC=C1)COC2=CC=CC=C2C[NH3+]

> <PUBCHEM_CACTVS_TPSA>
36.9

> <PUBCHEM_MONOISOTOPIC_WEIGHT>
228.138839

> <PUBCHEM_TOTAL_CHARGE>
1

> <PUBCHEM_HEAVY_ATOM_COUNT>
17

> <PUBCHEM_ATOM_DEF_STEREO_COUNT>
0

> <PUBCHEM_ATOM_UDEF_STEREO_COUNT>
0

> <PUBCHEM_BOND_DEF_STEREO_COUNT>
0

> <PUBCHEM_BOND_UDEF_STEREO_COUNT>
0

> <PUBCHEM_ISOTOPIC_ATOM_COUNT>
0

> <PUBCHEM_COMPONENT_COUNT>
1

> <PUBCHEM_CACTVS_TAUTO_COUNT>
1

> <PUBCHEM_COORDINATE_TYPE>
1
5
255

> <PUBCHEM_BONDANNOTATIONS>
10  15  8
11  14  8
12  16  8
13  14  8
15  16  8
3  4  8
3  9  8
4  11  8
6  12  8
6  8  8
8  10  8
9  13  8

$$$$
42182689
  -OEChem-12041212012D

 25 25  0     1  0  0  0  0  0999 V2000
    2.0000   -2.7500    0.0000 Cl  0  0  0  0  0  0  0  0  0  0  0  0
    2.8660    0.7500    0.0000 O   0  0  0  0  0  0  0  0  0  0  0  0
    4.5981    1.7500    0.0000 N   0  3  0  0  0  0  0  0  0  0  0  0
    3.7320    0.2500    0.0000 C   0  0  2  0  0  0  0  0  0  0  0  0
    4.5981    0.7500    0.0000 C   0  0  0  0  0  0  0  0  0  0  0  0
    3.7320   -0.7500    0.0000 C   0  0  0  0  0  0  0  0  0  0  0  0
    4.5981    2.7500    0.0000 C   0  0  0  0  0  0  0  0  0  0  0  0
    2.8660   -1.2500    0.0000 C   0  0  0  0  0  0  0  0  0  0  0  0
    4.5981   -1.2500    0.0000 C   0  0  0  0  0  0  0  0  0  0  0  0
    2.8660   -2.2500    0.0000 C   0  0  0  0  0  0  0  0  0  0  0  0
    4.5981   -2.2500    0.0000 C   0  0  0  0  0  0  0  0  0  0  0  0
    3.7320   -2.7500    0.0000 C   0  0  0  0  0  0  0  0  0  0  0  0
    3.7320    0.8700    0.0000 H   0  0  0  0  0  0  0  0  0  0  0  0
    4.8101    0.1674    0.0000 H   0  0  0  0  0  0  0  0  0  0  0  0
    5.2087    0.8577    0.0000 H   0  0  0  0  0  0  0  0  0  0  0  0
    5.2181    1.7500    0.0000 H   0  0  0  0  0  0  0  0  0  0  0  0
    3.9781    1.7500    0.0000 H   0  0  0  0  0  0  0  0  0  0  0  0
    5.2181    2.7500    0.0000 H   0  0  0  0  0  0  0  0  0  0  0  0
    4.5981    3.3700    0.0000 H   0  0  0  0  0  0  0  0  0  0  0  0
    3.9781    2.7500    0.0000 H   0  0  0  0  0  0  0  0  0  0  0  0
    2.3291   -0.9400    0.0000 H   0  0  0  0  0  0  0  0  0  0  0  0
    5.1350   -0.9400    0.0000 H   0  0  0  0  0  0  0  0  0  0  0  0
    2.8660    1.3700    0.0000 H   0  0  0  0  0  0  0  0  0  0  0  0
    5.1350   -2.5600    0.0000 H   0  0  0  0  0  0  0  0  0  0  0  0
    3.7320   -3.3700    0.0000 H   0  0  0  0  0  0  0  0  0  0  0  0
  1 10  1  0  0  0  0
  4  2  1  6  0  0  0
  2 23  1  0  0  0  0
  3  5  1  0  0  0  0
  3  7  1  0  0  0  0
  3 16  1  0  0  0  0
  3 17  1  0  0  0  0
  4  5  1  0  0  0  0
  4  6  1  0  0  0  0
  4 13  1  0  0  0  0
  5 14  1  0  0  0  0
  5 15  1  0  0  0  0
  6  8  2  0  0  0  0
  6  9  1  0  0  0  0
  7 18  1  0  0  0  0
  7 19  1  0  0  0  0
  7 20  1  0  0  0  0
  8 10  1  0  0  0  0
  8 21  1  0  0  0  0
  9 11  2  0  0  0  0
  9 22  1  0  0  0  0
 10 12  2  0  0  0  0
 11 12  1  0  0  0  0
 11 24  1  0  0  0  0
 12 25  1  0  0  0  0
M  CHG  1   3   1
M  END
> <PUBCHEM_COMPOUND_CID>
42182689

> <PUBCHEM_COMPOUND_CANONICALIZED>
1

> <PUBCHEM_CACTVS_COMPLEXITY>
132

> <PUBCHEM_CACTVS_HBOND_ACCEPTOR>
1

> <PUBCHEM_CACTVS_HBOND_DONOR>
2

> <PUBCHEM_CACTVS_ROTATABLE_BOND>
3

> <PUBCHEM_CACTVS_SUBSKEYS>
AAADccByIAAEAAAAAAAAAAAAAAAAAAAAAAAwAAAAAAAAAAABAAAAHgIQCAAADBbhmCYyAILAAgCAAiBCAAACAAAgBQAIiIAICogKNiKBkxGEcAAk0AEYmAeQwKAOAAAAIAAAAAAAAABAAAAAAAAAAAAAAA==

> <PUBCHEM_IUPAC_OPENEYE_NAME>
[(2S)-2-(3-chlorophenyl)-2-hydroxy-ethyl]-methyl-ammonium

> <PUBCHEM_IUPAC_CAS_NAME>
[(2S)-2-(3-chlorophenyl)-2-hydroxyethyl]-methylammonium

> <PUBCHEM_IUPAC_NAME>
[(2S)-2-(3-chlorophenyl)-2-hydroxyethyl]-methylazanium

> <PUBCHEM_IUPAC_SYSTEMATIC_NAME>
[(2S)-2-(3-chlorophenyl)-2-oxidanyl-ethyl]-methyl-azanium

> <PUBCHEM_IUPAC_TRADITIONAL_NAME>
[(2S)-2-(3-chlorophenyl)-2-hydroxy-ethyl]-methyl-ammonium

> <PUBCHEM_IUPAC_INCHI>
InChI=1S/C9H12ClNO/c1-11-6-9(12)7-3-2-4-8(10)5-7/h2-5,9,11-12H,6H2,1H3/p+1/t9-/m1/s1

> <PUBCHEM_IUPAC_INCHIKEY>
SWKJHTPWMPMNGP-SECBINFHSA-O

> <PUBCHEM_XLOGP3>
0.7

> <PUBCHEM_EXACT_MASS>
186.068567

> <PUBCHEM_MOLECULAR_FORMULA>
C9H13ClNO+

> <PUBCHEM_MOLECULAR_WEIGHT>
186.65862

> <PUBCHEM_OPENEYE_CAN_SMILES>
C[NH2+]CC(C1=CC(=CC=C1)Cl)O

> <PUBCHEM_OPENEYE_ISO_SMILES>
C[NH2+]C[C@H](C1=CC(=CC=C1)Cl)O

> <PUBCHEM_CACTVS_TPSA>
36.8

> <PUBCHEM_MONOISOTOPIC_WEIGHT>
186.068567

> <PUBCHEM_TOTAL_CHARGE>
1

> <PUBCHEM_HEAVY_ATOM_COUNT>
12

> <PUBCHEM_ATOM_DEF_STEREO_COUNT>
1

> <PUBCHEM_ATOM_UDEF_STEREO_COUNT>
0

> <PUBCHEM_BOND_DEF_STEREO_COUNT>
0

> <PUBCHEM_BOND_UDEF_STEREO_COUNT>
0

> <PUBCHEM_ISOTOPIC_ATOM_COUNT>
0

> <PUBCHEM_COMPONENT_COUNT>
1

> <PUBCHEM_CACTVS_TAUTO_COUNT>
1

> <PUBCHEM_COORDINATE_TYPE>
1
5
255

> <PUBCHEM_BONDANNOTATIONS>
10  12  8
11  12  8
4  2  6
6  8  8
6  9  8
8  10  8
9  11  8

$$$$
42182692
  -OEChem-12041212012D

 25 25  0     1  0  0  0  0  0999 V2000
    2.0000   -2.7500    0.0000 Cl  0  0  0  0  0  0  0  0  0  0  0  0
    2.8660    0.7500    0.0000 O   0  0  0  0  0  0  0  0  0  0  0  0
    4.5981    1.7500    0.0000 N   0  3  0  0  0  0  0  0  0  0  0  0
    3.7320    0.2500    0.0000 C   0  0  1  0  0  0  0  0  0  0  0  0
    4.5981    0.7500    0.0000 C   0  0  0  0  0  0  0  0  0  0  0  0
    3.7320   -0.7500    0.0000 C   0  0  0  0  0  0  0  0  0  0  0  0
    4.5981    2.7500    0.0000 C   0  0  0  0  0  0  0  0  0  0  0  0
    2.8660   -1.2500    0.0000 C   0  0  0  0  0  0  0  0  0  0  0  0
    4.5981   -1.2500    0.0000 C   0  0  0  0  0  0  0  0  0  0  0  0
    2.8660   -2.2500    0.0000 C   0  0  0  0  0  0  0  0  0  0  0  0
    4.5981   -2.2500    0.0000 C   0  0  0  0  0  0  0  0  0  0  0  0
    3.7320   -2.7500    0.0000 C   0  0  0  0  0  0  0  0  0  0  0  0
    3.7320    0.8700    0.0000 H   0  0  0  0  0  0  0  0  0  0  0  0
    4.8101    0.1674    0.0000 H   0  0  0  0  0  0  0  0  0  0  0  0
    5.2087    0.8577    0.0000 H   0  0  0  0  0  0  0  0  0  0  0  0
    5.2181    1.7500    0.0000 H   0  0  0  0  0  0  0  0  0  0  0  0
    3.9781    1.7500    0.0000 H   0  0  0  0  0  0  0  0  0  0  0  0
    5.2181    2.7500    0.0000 H   0  0  0  0  0  0  0  0  0  0  0  0
    4.5981    3.3700    0.0000 H   0  0  0  0  0  0  0  0  0  0  0  0
    3.9781    2.7500    0.0000 H   0  0  0  0  0  0  0  0  0  0  0  0
    2.3291   -0.9400    0.0000 H   0  0  0  0  0  0  0  0  0  0  0  0
    5.1350   -0.9400    0.0000 H   0  0  0  0  0  0  0  0  0  0  0  0
    2.8660    1.3700    0.0000 H   0  0  0  0  0  0  0  0  0  0  0  0
    5.1350   -2.5600    0.0000 H   0  0  0  0  0  0  0  0  0  0  0  0
    3.7320   -3.3700    0.0000 H   0  0  0  0  0  0  0  0  0  0  0  0
  1 10  1  0  0  0  0
  4  2  1  1  0  0  0
  2 23  1  0  0  0  0
  3  5  1  0  0  0  0
  3  7  1  0  0  0  0
  3 16  1  0  0  0  0
  3 17  1  0  0  0  0
  4  5  1  0  0  0  0
  4  6  1  0  0  0  0
  4 13  1  0  0  0  0
  5 14  1  0  0  0  0
  5 15  1  0  0  0  0
  6  8  2  0  0  0  0
  6  9  1  0  0  0  0
  7 18  1  0  0  0  0
  7 19  1  0  0  0  0
  7 20  1  0  0  0  0
  8 10  1  0  0  0  0
  8 21  1  0  0  0  0
  9 11  2  0  0  0  0
  9 22  1  0  0  0  0
 10 12  2  0  0  0  0
 11 12  1  0  0  0  0
 11 24  1  0  0  0  0
 12 25  1  0  0  0  0
M  CHG  1   3   1
M  END
> <PUBCHEM_COMPOUND_CID>
42182692

> <PUBCHEM_COMPOUND_CANONICALIZED>
1

> <PUBCHEM_CACTVS_COMPLEXITY>
132

> <PUBCHEM_CACTVS_HBOND_ACCEPTOR>
1

> <PUBCHEM_CACTVS_HBOND_DONOR>
2

> <PUBCHEM_CACTVS_ROTATABLE_BOND>
3

> <PUBCHEM_CACTVS_SUBSKEYS>
AAADccByIAAEAAAAAAAAAAAAAAAAAAAAAAAwAAAAAAAAAAABAAAAHgIQCAAADBbhmCYyAILAAgCAAiBCAAACAAAgBQAIiIAICogKNiKBkxGEcAAk0AEYmAeQwKAOAAAAIAAAAAAAAABAAAAAAAAAAAAAAA==

> <PUBCHEM_IUPAC_OPENEYE_NAME>
[(2R)-2-(3-chlorophenyl)-2-hydroxy-ethyl]-methyl-ammonium

> <PUBCHEM_IUPAC_CAS_NAME>
[(2R)-2-(3-chlorophenyl)-2-hydroxyethyl]-methylammonium

> <PUBCHEM_IUPAC_NAME>
[(2R)-2-(3-chlorophenyl)-2-hydroxyethyl]-methylazanium

> <PUBCHEM_IUPAC_SYSTEMATIC_NAME>
[(2R)-2-(3-chlorophenyl)-2-oxidanyl-ethyl]-methyl-azanium

> <PUBCHEM_IUPAC_TRADITIONAL_NAME>
[(2R)-2-(3-chlorophenyl)-2-hydroxy-ethyl]-methyl-ammonium

> <PUBCHEM_IUPAC_INCHI>
InChI=1S/C9H12ClNO/c1-11-6-9(12)7-3-2-4-8(10)5-7/h2-5,9,11-12H,6H2,1H3/p+1/t9-/m0/s1

> <PUBCHEM_IUPAC_INCHIKEY>
SWKJHTPWMPMNGP-VIFPVBQESA-O

> <PUBCHEM_XLOGP3>
0.7

> <PUBCHEM_EXACT_MASS>
186.068567

> <PUBCHEM_MOLECULAR_FORMULA>
C9H13ClNO+

> <PUBCHEM_MOLECULAR_WEIGHT>
186.65862

> <PUBCHEM_OPENEYE_CAN_SMILES>
C[NH2+]CC(C1=CC(=CC=C1)Cl)O

> <PUBCHEM_OPENEYE_ISO_SMILES>
C[NH2+]C[C@@H](C1=CC(=CC=C1)Cl)O

> <PUBCHEM_CACTVS_TPSA>
36.8

> <PUBCHEM_MONOISOTOPIC_WEIGHT>
186.068567

> <PUBCHEM_TOTAL_CHARGE>
1

> <PUBCHEM_HEAVY_ATOM_COUNT>
12

> <PUBCHEM_ATOM_DEF_STEREO_COUNT>
1

> <PUBCHEM_ATOM_UDEF_STEREO_COUNT>
0

> <PUBCHEM_BOND_DEF_STEREO_COUNT>
0

> <PUBCHEM_BOND_UDEF_STEREO_COUNT>
0

> <PUBCHEM_ISOTOPIC_ATOM_COUNT>
0

> <PUBCHEM_COMPONENT_COUNT>
1

> <PUBCHEM_CACTVS_TAUTO_COUNT>
1

> <PUBCHEM_COORDINATE_TYPE>
1
5
255

> <PUBCHEM_BONDANNOTATIONS>
10  12  8
11  12  8
4  2  5
6  8  8
6  9  8
8  10  8
9  11  8

$$$$
42182695
  -OEChem-12041212012D

 25 25  0     1  0  0  0  0  0999 V2000
    2.8660   -3.2500    0.0000 Cl  0  0  0  0  0  0  0  0  0  0  0  0
    2.0000    1.2500    0.0000 O   0  0  0  0  0  0  0  0  0  0  0  0
    3.7320    2.2500    0.0000 N   0  3  0  0  0  0  0  0  0  0  0  0
    2.8660    0.7500    0.0000 C   0  0  2  0  0  0  0  0  0  0  0  0
    3.7320    1.2500    0.0000 C   0  0  0  0  0  0  0  0  0  0  0  0
    2.8660   -0.2500    0.0000 C   0  0  0  0  0  0  0  0  0  0  0  0
    3.7320    3.2500    0.0000 C   0  0  0  0  0  0  0  0  0  0  0  0
    2.0000   -0.7500    0.0000 C   0  0  0  0  0  0  0  0  0  0  0  0
    3.7320   -0.7500    0.0000 C   0  0  0  0  0  0  0  0  0  0  0  0
    2.0000   -1.7500    0.0000 C   0  0  0  0  0  0  0  0  0  0  0  0
    3.7320   -1.7500    0.0000 C   0  0  0  0  0  0  0  0  0  0  0  0
    2.8660   -2.2500    0.0000 C   0  0  0  0  0  0  0  0  0  0  0  0
    2.8660    1.3700    0.0000 H   0  0  0  0  0  0  0  0  0  0  0  0
    3.9441    0.6674    0.0000 H   0  0  0  0  0  0  0  0  0  0  0  0
    4.3426    1.3577    0.0000 H   0  0  0  0  0  0  0  0  0  0  0  0
    4.3520    2.2500    0.0000 H   0  0  0  0  0  0  0  0  0  0  0  0
    3.1120    2.2500    0.0000 H   0  0  0  0  0  0  0  0  0  0  0  0
    4.3520    3.2500    0.0000 H   0  0  0  0  0  0  0  0  0  0  0  0
    3.7320    3.8700    0.0000 H   0  0  0  0  0  0  0  0  0  0  0  0
    3.1120    3.2500    0.0000 H   0  0  0  0  0  0  0  0  0  0  0  0
    1.4631   -0.4400    0.0000 H   0  0  0  0  0  0  0  0  0  0  0  0
    4.2690   -0.4400    0.0000 H   0  0  0  0  0  0  0  0  0  0  0  0
    2.0000    1.8700    0.0000 H   0  0  0  0  0  0  0  0  0  0  0  0
    1.4631   -2.0600    0.0000 H   0  0  0  0  0  0  0  0  0  0  0  0
    4.2690   -2.0600    0.0000 H   0  0  0  0  0  0  0  0  0  0  0  0
  1 12  1  0  0  0  0
  4  2  1  6  0  0  0
  2 23  1  0  0  0  0
  3  5  1  0  0  0  0
  3  7  1  0  0  0  0
  3 16  1  0  0  0  0
  3 17  1  0  0  0  0
  4  5  1  0  0  0  0
  4  6  1  0  0  0  0
  4 13  1  0  0  0  0
  5 14  1  0  0  0  0
  5 15  1  0  0  0  0
  6  8  2  0  0  0  0
  6  9  1  0  0  0  0
  7 18  1  0  0  0  0
  7 19  1  0  0  0  0
  7 20  1  0  0  0  0
  8 10  1  0  0  0  0
  8 21  1  0  0  0  0
  9 11  2  0  0  0  0
  9 22  1  0  0  0  0
 10 12  2  0  0  0  0
 10 24  1  0  0  0  0
 11 12  1  0  0  0  0
 11 25  1  0  0  0  0
M  CHG  1   3   1
M  END
> <PUBCHEM_COMPOUND_CID>
42182695

> <PUBCHEM_COMPOUND_CANONICALIZED>
1

> <PUBCHEM_CACTVS_COMPLEXITY>
124

> <PUBCHEM_CACTVS_HBOND_ACCEPTOR>
1

> <PUBCHEM_CACTVS_HBOND_DONOR>
2

> <PUBCHEM_CACTVS_ROTATABLE_BOND>
3

> <PUBCHEM_CACTVS_SUBSKEYS>
AAADccByIAAEAAAAAAAAAAAAAAAAAAAAAAAwAAAAAAAAAAABAAAAHgIQCAAADBbhmCYyAILAAgCAAiBCAAACAAAgBQAIiIAICogKNiKBkxGEcAAk0AEYmAeQwKAOBAAAAAAAAAAIAAAAAAAAAAAAAAAAAA==

> <PUBCHEM_IUPAC_OPENEYE_NAME>
[(2S)-2-(4-chlorophenyl)-2-hydroxy-ethyl]-methyl-ammonium

> <PUBCHEM_IUPAC_CAS_NAME>
[(2S)-2-(4-chlorophenyl)-2-hydroxyethyl]-methylammonium

> <PUBCHEM_IUPAC_NAME>
[(2S)-2-(4-chlorophenyl)-2-hydroxyethyl]-methylazanium

> <PUBCHEM_IUPAC_SYSTEMATIC_NAME>
[(2S)-2-(4-chlorophenyl)-2-oxidanyl-ethyl]-methyl-azanium

> <PUBCHEM_IUPAC_TRADITIONAL_NAME>
[(2S)-2-(4-chlorophenyl)-2-hydroxy-ethyl]-methyl-ammonium

> <PUBCHEM_IUPAC_INCHI>
InChI=1S/C9H12ClNO/c1-11-6-9(12)7-2-4-8(10)5-3-7/h2-5,9,11-12H,6H2,1H3/p+1/t9-/m1/s1

> <PUBCHEM_IUPAC_INCHIKEY>
PRHFCODVVHEZRP-SECBINFHSA-O

> <PUBCHEM_XLOGP3>
0.4

> <PUBCHEM_EXACT_MASS>
186.068567

> <PUBCHEM_MOLECULAR_FORMULA>
C9H13ClNO+

> <PUBCHEM_MOLECULAR_WEIGHT>
186.65862

> <PUBCHEM_OPENEYE_CAN_SMILES>
C[NH2+]CC(C1=CC=C(C=C1)Cl)O

> <PUBCHEM_OPENEYE_ISO_SMILES>
C[NH2+]C[C@H](C1=CC=C(C=C1)Cl)O

> <PUBCHEM_CACTVS_TPSA>
36.8

> <PUBCHEM_MONOISOTOPIC_WEIGHT>
186.068567

> <PUBCHEM_TOTAL_CHARGE>
1

> <PUBCHEM_HEAVY_ATOM_COUNT>
12

> <PUBCHEM_ATOM_DEF_STEREO_COUNT>
1

> <PUBCHEM_ATOM_UDEF_STEREO_COUNT>
0

> <PUBCHEM_BOND_DEF_STEREO_COUNT>
0

> <PUBCHEM_BOND_UDEF_STEREO_COUNT>
0

> <PUBCHEM_ISOTOPIC_ATOM_COUNT>
0

> <PUBCHEM_COMPONENT_COUNT>
1

> <PUBCHEM_CACTVS_TAUTO_COUNT>
1

> <PUBCHEM_COORDINATE_TYPE>
1
5
255

> <PUBCHEM_BONDANNOTATIONS>
10  12  8
11  12  8
4  2  6
6  8  8
6  9  8
8  10  8
9  11  8

$$$$
42182698
  -OEChem-12041212012D

 25 25  0     1  0  0  0  0  0999 V2000
    2.8660   -3.2500    0.0000 Cl  0  0  0  0  0  0  0  0  0  0  0  0
    2.0000    1.2500    0.0000 O   0  0  0  0  0  0  0  0  0  0  0  0
    3.7320    2.2500    0.0000 N   0  3  0  0  0  0  0  0  0  0  0  0
    2.8660    0.7500    0.0000 C   0  0  1  0  0  0  0  0  0  0  0  0
    3.7320    1.2500    0.0000 C   0  0  0  0  0  0  0  0  0  0  0  0
    2.8660   -0.2500    0.0000 C   0  0  0  0  0  0  0  0  0  0  0  0
    3.7320    3.2500    0.0000 C   0  0  0  0  0  0  0  0  0  0  0  0
    2.0000   -0.7500    0.0000 C   0  0  0  0  0  0  0  0  0  0  0  0
    3.7320   -0.7500    0.0000 C   0  0  0  0  0  0  0  0  0  0  0  0
    2.0000   -1.7500    0.0000 C   0  0  0  0  0  0  0  0  0  0  0  0
    3.7320   -1.7500    0.0000 C   0  0  0  0  0  0  0  0  0  0  0  0
    2.8660   -2.2500    0.0000 C   0  0  0  0  0  0  0  0  0  0  0  0
    2.8660    1.3700    0.0000 H   0  0  0  0  0  0  0  0  0  0  0  0
    3.9441    0.6674    0.0000 H   0  0  0  0  0  0  0  0  0  0  0  0
    4.3426    1.3577    0.0000 H   0  0  0  0  0  0  0  0  0  0  0  0
    4.3520    2.2500    0.0000 H   0  0  0  0  0  0  0  0  0  0  0  0
    3.1120    2.2500    0.0000 H   0  0  0  0  0  0  0  0  0  0  0  0
    4.3520    3.2500    0.0000 H   0  0  0  0  0  0  0  0  0  0  0  0
    3.7320    3.8700    0.0000 H   0  0  0  0  0  0  0  0  0  0  0  0
    3.1120    3.2500    0.0000 H   0  0  0  0  0  0  0  0  0  0  0  0
    1.4631   -0.4400    0.0000 H   0  0  0  0  0  0  0  0  0  0  0  0
    4.2690   -0.4400    0.0000 H   0  0  0  0  0  0  0  0  0  0  0  0
    2.0000    1.8700    0.0000 H   0  0  0  0  0  0  0  0  0  0  0  0
    1.4631   -2.0600    0.0000 H   0  0  0  0  0  0  0  0  0  0  0  0
    4.2690   -2.0600    0.0000 H   0  0  0  0  0  0  0  0  0  0  0  0
  1 12  1  0  0  0  0
  4  2  1  1  0  0  0
  2 23  1  0  0  0  0
  3  5  1  0  0  0  0
  3  7  1  0  0  0  0
  3 16  1  0  0  0  0
  3 17  1  0  0  0  0
  4  5  1  0  0  0  0
  4  6  1  0  0  0  0
  4 13  1  0  0  0  0
  5 14  1  0  0  0  0
  5 15  1  0  0  0  0
  6  8  2  0  0  0  0
  6  9  1  0  0  0  0
  7 18  1  0  0  0  0
  7 19  1  0  0  0  0
  7 20  1  0  0  0  0
  8 10  1  0  0  0  0
  8 21  1  0  0  0  0
  9 11  2  0  0  0  0
  9 22  1  0  0  0  0
 10 12  2  0  0  0  0
 10 24  1  0  0  0  0
 11 12  1  0  0  0  0
 11 25  1  0  0  0  0
M  CHG  1   3   1
M  END
> <PUBCHEM_COMPOUND_CID>
42182698

> <PUBCHEM_COMPOUND_CANONICALIZED>
1

> <PUBCHEM_CACTVS_COMPLEXITY>
124

> <PUBCHEM_CACTVS_HBOND_ACCEPTOR>
1

> <PUBCHEM_CACTVS_HBOND_DONOR>
2

> <PUBCHEM_CACTVS_ROTATABLE_BOND>
3

> <PUBCHEM_CACTVS_SUBSKEYS>
AAADccByIAAEAAAAAAAAAAAAAAAAAAAAAAAwAAAAAAAAAAABAAAAHgIQCAAADBbhmCYyAILAAgCAAiBCAAACAAAgBQAIiIAICogKNiKBkxGEcAAk0AEYmAeQwKAOBAAAAAAAAAAIAAAAAAAAAAAAAAAAAA==

> <PUBCHEM_IUPAC_OPENEYE_NAME>
[(2R)-2-(4-chlorophenyl)-2-hydroxy-ethyl]-methyl-ammonium

> <PUBCHEM_IUPAC_CAS_NAME>
[(2R)-2-(4-chlorophenyl)-2-hydroxyethyl]-methylammonium

> <PUBCHEM_IUPAC_NAME>
[(2R)-2-(4-chlorophenyl)-2-hydroxyethyl]-methylazanium

> <PUBCHEM_IUPAC_SYSTEMATIC_NAME>
[(2R)-2-(4-chlorophenyl)-2-oxidanyl-ethyl]-methyl-azanium

> <PUBCHEM_IUPAC_TRADITIONAL_NAME>
[(2R)-2-(4-chlorophenyl)-2-hydroxy-ethyl]-methyl-ammonium

> <PUBCHEM_IUPAC_INCHI>
InChI=1S/C9H12ClNO/c1-11-6-9(12)7-2-4-8(10)5-3-7/h2-5,9,11-12H,6H2,1H3/p+1/t9-/m0/s1

> <PUBCHEM_IUPAC_INCHIKEY>
PRHFCODVVHEZRP-VIFPVBQESA-O

> <PUBCHEM_XLOGP3>
0.4

> <PUBCHEM_EXACT_MASS>
186.068567

> <PUBCHEM_MOLECULAR_FORMULA>
C9H13ClNO+

> <PUBCHEM_MOLECULAR_WEIGHT>
186.65862

> <PUBCHEM_OPENEYE_CAN_SMILES>
C[NH2+]CC(C1=CC=C(C=C1)Cl)O

> <PUBCHEM_OPENEYE_ISO_SMILES>
C[NH2+]C[C@@H](C1=CC=C(C=C1)Cl)O

> <PUBCHEM_CACTVS_TPSA>
36.8

> <PUBCHEM_MONOISOTOPIC_WEIGHT>
186.068567

> <PUBCHEM_TOTAL_CHARGE>
1

> <PUBCHEM_HEAVY_ATOM_COUNT>
12

> <PUBCHEM_ATOM_DEF_STEREO_COUNT>
1

> <PUBCHEM_ATOM_UDEF_STEREO_COUNT>
0

> <PUBCHEM_BOND_DEF_STEREO_COUNT>
0

> <PUBCHEM_BOND_UDEF_STEREO_COUNT>
0

> <PUBCHEM_ISOTOPIC_ATOM_COUNT>
0

> <PUBCHEM_COMPONENT_COUNT>
1

> <PUBCHEM_CACTVS_TAUTO_COUNT>
1

> <PUBCHEM_COORDINATE_TYPE>
1
5
255

> <PUBCHEM_BONDANNOTATIONS>
10  12  8
11  12  8
4  2  5
6  8  8
6  9  8
8  10  8
9  11  8

$$$$
42182827
  -OEChem-12041212012D

 26 27  0     1  0  0  0  0  0999 V2000
    2.8660    2.5185    0.0000 Cl  0  0  0  0  0  0  0  0  0  0  0  0
    5.4641    0.0185    0.0000 O   0  0  0  0  0  0  0  0  0  0  0  0
    5.4641   -1.9815    0.0000 N   0  3  0  0  0  0  0  0  0  0  0  0
    4.5981   -0.4815    0.0000 C   0  0  1  0  0  0  0  0  0  0  0  0
    4.5981   -1.4815    0.0000 C   0  0  0  0  0  0  0  0  0  0  0  0
    6.3301   -1.4815    0.0000 C   0  0  0  0  0  0  0  0  0  0  0  0
    6.3301   -0.4815    0.0000 C   0  0  0  0  0  0  0  0  0  0  0  0
    3.7320    0.0185    0.0000 C   0  0  0  0  0  0  0  0  0  0  0  0
    3.7320    1.0185    0.0000 C   0  0  0  0  0  0  0  0  0  0  0  0
    2.8660   -0.4815    0.0000 C   0  0  0  0  0  0  0  0  0  0  0  0
    2.8660    1.5185    0.0000 C   0  0  0  0  0  0  0  0  0  0  0  0
    2.0000    0.0185    0.0000 C   0  0  0  0  0  0  0  0  0  0  0  0
    2.0000    1.0185    0.0000 C   0  0  0  0  0  0  0  0  0  0  0  0
    4.5981    0.1385    0.0000 H   0  0  0  0  0  0  0  0  0  0  0  0
    3.9875   -1.3739    0.0000 H   0  0  0  0  0  0  0  0  0  0  0  0
    4.3860   -2.0641    0.0000 H   0  0  0  0  0  0  0  0  0  0  0  0
    5.7741   -2.5185    0.0000 H   0  0  0  0  0  0  0  0  0  0  0  0
    5.1541   -2.5185    0.0000 H   0  0  0  0  0  0  0  0  0  0  0  0
    6.5422   -2.0641    0.0000 H   0  0  0  0  0  0  0  0  0  0  0  0
    6.9407   -1.3739    0.0000 H   0  0  0  0  0  0  0  0  0  0  0  0
    6.9407   -0.5892    0.0000 H   0  0  0  0  0  0  0  0  0  0  0  0
    6.5422    0.1011    0.0000 H   0  0  0  0  0  0  0  0  0  0  0  0
    4.2690    1.3285    0.0000 H   0  0  0  0  0  0  0  0  0  0  0  0
    2.8660   -1.1015    0.0000 H   0  0  0  0  0  0  0  0  0  0  0  0
    1.4631   -0.2915    0.0000 H   0  0  0  0  0  0  0  0  0  0  0  0
    1.4631    1.3285    0.0000 H   0  0  0  0  0  0  0  0  0  0  0  0
  1 11  1  0  0  0  0
  2  4  1  0  0  0  0
  2  7  1  0  0  0  0
  3  5  1  0  0  0  0
  3  6  1  0  0  0  0
  3 17  1  0  0  0  0
  3 18  1  0  0  0  0
  4  5  1  0  0  0  0
  4  8  1  1  0  0  0
  4 14  1  0  0  0  0
  5 15  1  0  0  0  0
  5 16  1  0  0  0  0
  6  7  1  0  0  0  0
  6 19  1  0  0  0  0
  6 20  1  0  0  0  0
  7 21  1  0  0  0  0
  7 22  1  0  0  0  0
  8  9  2  0  0  0  0
  8 10  1  0  0  0  0
  9 11  1  0  0  0  0
  9 23  1  0  0  0  0
 10 12  2  0  0  0  0
 10 24  1  0  0  0  0
 11 13  2  0  0  0  0
 12 13  1  0  0  0  0
 12 25  1  0  0  0  0
 13 26  1  0  0  0  0
M  CHG  1   3   1
M  END
> <PUBCHEM_COMPOUND_CID>
42182827

> <PUBCHEM_COMPOUND_CANONICALIZED>
1

> <PUBCHEM_CACTVS_COMPLEXITY>
165

> <PUBCHEM_CACTVS_HBOND_ACCEPTOR>
1

> <PUBCHEM_CACTVS_HBOND_DONOR>
1

> <PUBCHEM_CACTVS_ROTATABLE_BOND>
1

> <PUBCHEM_CACTVS_SUBSKEYS>
AAADccByIAAEAAAAAAAAAAAAAAAAAAAAAAA8QAAAAAAAAAABAAAAHgIQAAAADBbhmCYwAILABACAAiBCAAACAAAgBQAIiIAICogKJiKBsxmHMAAk0AGYqAeQwKAOAAAAIAAAAAAAAABAAAAAAAAAAAAAAA==

> <PUBCHEM_IUPAC_OPENEYE_NAME>
(2R)-2-(3-chlorophenyl)morpholin-4-ium

> <PUBCHEM_IUPAC_CAS_NAME>
(2R)-2-(3-chlorophenyl)morpholin-4-ium

> <PUBCHEM_IUPAC_NAME>
(2R)-2-(3-chlorophenyl)morpholin-4-ium

> <PUBCHEM_IUPAC_SYSTEMATIC_NAME>
(2R)-2-(3-chlorophenyl)morpholin-4-ium

> <PUBCHEM_IUPAC_TRADITIONAL_NAME>
(2R)-2-(3-chlorophenyl)morpholin-4-ium

> <PUBCHEM_IUPAC_INCHI>
InChI=1S/C10H12ClNO/c11-9-3-1-2-8(6-9)10-7-12-4-5-13-10/h1-3,6,10,12H,4-5,7H2/p+1/t10-/m0/s1

> <PUBCHEM_IUPAC_INCHIKEY>
GFAWQDWBIIPABX-JTQLQIEISA-O

> <PUBCHEM_XLOGP3>
1.9

> <PUBCHEM_EXACT_MASS>
198.068567

> <PUBCHEM_MOLECULAR_FORMULA>
C10H13ClNO+

> <PUBCHEM_MOLECULAR_WEIGHT>
198.66932

> <PUBCHEM_OPENEYE_CAN_SMILES>
C1COC(C[NH2+]1)C2=CC(=CC=C2)Cl

> <PUBCHEM_OPENEYE_ISO_SMILES>
C1CO[C@@H](C[NH2+]1)C2=CC(=CC=C2)Cl

> <PUBCHEM_CACTVS_TPSA>
25.8

> <PUBCHEM_MONOISOTOPIC_WEIGHT>
198.068567

> <PUBCHEM_TOTAL_CHARGE>
1

> <PUBCHEM_HEAVY_ATOM_COUNT>
13

> <PUBCHEM_ATOM_DEF_STEREO_COUNT>
1

> <PUBCHEM_ATOM_UDEF_STEREO_COUNT>
0

> <PUBCHEM_BOND_DEF_STEREO_COUNT>
0

> <PUBCHEM_BOND_UDEF_STEREO_COUNT>
0

> <PUBCHEM_ISOTOPIC_ATOM_COUNT>
0

> <PUBCHEM_COMPONENT_COUNT>
1

> <PUBCHEM_CACTVS_TAUTO_COUNT>
1

> <PUBCHEM_COORDINATE_TYPE>
1
5
255

> <PUBCHEM_BONDANNOTATIONS>
10  12  8
11  13  8
12  13  8
4  8  5
8  10  8
8  9  8
9  11  8

$$$$
42182831
  -OEChem-12041212012D

 26 27  0     1  0  0  0  0  0999 V2000
    2.8660    2.5185    0.0000 Cl  0  0  0  0  0  0  0  0  0  0  0  0
    5.4641    0.0185    0.0000 O   0  0  0  0  0  0  0  0  0  0  0  0
    5.4641   -1.9815    0.0000 N   0  3  0  0  0  0  0  0  0  0  0  0
    4.5981   -0.4815    0.0000 C   0  0  2  0  0  0  0  0  0  0  0  0
    4.5981   -1.4815    0.0000 C   0  0  0  0  0  0  0  0  0  0  0  0
    6.3301   -1.4815    0.0000 C   0  0  0  0  0  0  0  0  0  0  0  0
    6.3301   -0.4815    0.0000 C   0  0  0  0  0  0  0  0  0  0  0  0
    3.7320    0.0185    0.0000 C   0  0  0  0  0  0  0  0  0  0  0  0
    3.7320    1.0185    0.0000 C   0  0  0  0  0  0  0  0  0  0  0  0
    2.8660   -0.4815    0.0000 C   0  0  0  0  0  0  0  0  0  0  0  0
    2.8660    1.5185    0.0000 C   0  0  0  0  0  0  0  0  0  0  0  0
    2.0000    0.0185    0.0000 C   0  0  0  0  0  0  0  0  0  0  0  0
    2.0000    1.0185    0.0000 C   0  0  0  0  0  0  0  0  0  0  0  0
    4.5981    0.1385    0.0000 H   0  0  0  0  0  0  0  0  0  0  0  0
    3.9875   -1.3739    0.0000 H   0  0  0  0  0  0  0  0  0  0  0  0
    4.3860   -2.0641    0.0000 H   0  0  0  0  0  0  0  0  0  0  0  0
    5.7741   -2.5185    0.0000 H   0  0  0  0  0  0  0  0  0  0  0  0
    5.1541   -2.5185    0.0000 H   0  0  0  0  0  0  0  0  0  0  0  0
    6.5422   -2.0641    0.0000 H   0  0  0  0  0  0  0  0  0  0  0  0
    6.9407   -1.3739    0.0000 H   0  0  0  0  0  0  0  0  0  0  0  0
    6.9407   -0.5892    0.0000 H   0  0  0  0  0  0  0  0  0  0  0  0
    6.5422    0.1011    0.0000 H   0  0  0  0  0  0  0  0  0  0  0  0
    4.2690    1.3285    0.0000 H   0  0  0  0  0  0  0  0  0  0  0  0
    2.8660   -1.1015    0.0000 H   0  0  0  0  0  0  0  0  0  0  0  0
    1.4631   -0.2915    0.0000 H   0  0  0  0  0  0  0  0  0  0  0  0
    1.4631    1.3285    0.0000 H   0  0  0  0  0  0  0  0  0  0  0  0
  1 11  1  0  0  0  0
  2  4  1  0  0  0  0
  2  7  1  0  0  0  0
  3  5  1  0  0  0  0
  3  6  1  0  0  0  0
  3 17  1  0  0  0  0
  3 18  1  0  0  0  0
  4  5  1  0  0  0  0
  4  8  1  6  0  0  0
  4 14  1  0  0  0  0
  5 15  1  0  0  0  0
  5 16  1  0  0  0  0
  6  7  1  0  0  0  0
  6 19  1  0  0  0  0
  6 20  1  0  0  0  0
  7 21  1  0  0  0  0
  7 22  1  0  0  0  0
  8  9  2  0  0  0  0
  8 10  1  0  0  0  0
  9 11  1  0  0  0  0
  9 23  1  0  0  0  0
 10 12  2  0  0  0  0
 10 24  1  0  0  0  0
 11 13  2  0  0  0  0
 12 13  1  0  0  0  0
 12 25  1  0  0  0  0
 13 26  1  0  0  0  0
M  CHG  1   3   1
M  END
> <PUBCHEM_COMPOUND_CID>
42182831

> <PUBCHEM_COMPOUND_CANONICALIZED>
1

> <PUBCHEM_CACTVS_COMPLEXITY>
165

> <PUBCHEM_CACTVS_HBOND_ACCEPTOR>
1

> <PUBCHEM_CACTVS_HBOND_DONOR>
1

> <PUBCHEM_CACTVS_ROTATABLE_BOND>
1

> <PUBCHEM_CACTVS_SUBSKEYS>
AAADccByIAAEAAAAAAAAAAAAAAAAAAAAAAA8QAAAAAAAAAABAAAAHgIQAAAADBbhmCYwAILABACAAiBCAAACAAAgBQAIiIAICogKJiKBsxmHMAAk0AGYqAeQwKAOAAAAIAAAAAAAAABAAAAAAAAAAAAAAA==

> <PUBCHEM_IUPAC_OPENEYE_NAME>
(2S)-2-(3-chlorophenyl)morpholin-4-ium

> <PUBCHEM_IUPAC_CAS_NAME>
(2S)-2-(3-chlorophenyl)morpholin-4-ium

> <PUBCHEM_IUPAC_NAME>
(2S)-2-(3-chlorophenyl)morpholin-4-ium

> <PUBCHEM_IUPAC_SYSTEMATIC_NAME>
(2S)-2-(3-chlorophenyl)morpholin-4-ium

> <PUBCHEM_IUPAC_TRADITIONAL_NAME>
(2S)-2-(3-chlorophenyl)morpholin-4-ium

> <PUBCHEM_IUPAC_INCHI>
InChI=1S/C10H12ClNO/c11-9-3-1-2-8(6-9)10-7-12-4-5-13-10/h1-3,6,10,12H,4-5,7H2/p+1/t10-/m1/s1

> <PUBCHEM_IUPAC_INCHIKEY>
GFAWQDWBIIPABX-SNVBAGLBSA-O

> <PUBCHEM_XLOGP3>
1.9

> <PUBCHEM_EXACT_MASS>
198.068567

> <PUBCHEM_MOLECULAR_FORMULA>
C10H13ClNO+

> <PUBCHEM_MOLECULAR_WEIGHT>
198.66932

> <PUBCHEM_OPENEYE_CAN_SMILES>
C1COC(C[NH2+]1)C2=CC(=CC=C2)Cl

> <PUBCHEM_OPENEYE_ISO_SMILES>
C1CO[C@H](C[NH2+]1)C2=CC(=CC=C2)Cl

> <PUBCHEM_CACTVS_TPSA>
25.8

> <PUBCHEM_MONOISOTOPIC_WEIGHT>
198.068567

> <PUBCHEM_TOTAL_CHARGE>
1

> <PUBCHEM_HEAVY_ATOM_COUNT>
13

> <PUBCHEM_ATOM_DEF_STEREO_COUNT>
1

> <PUBCHEM_ATOM_UDEF_STEREO_COUNT>
0

> <PUBCHEM_BOND_DEF_STEREO_COUNT>
0

> <PUBCHEM_BOND_UDEF_STEREO_COUNT>
0

> <PUBCHEM_ISOTOPIC_ATOM_COUNT>
0

> <PUBCHEM_COMPONENT_COUNT>
1

> <PUBCHEM_CACTVS_TAUTO_COUNT>
1

> <PUBCHEM_COORDINATE_TYPE>
1
5
255

> <PUBCHEM_BONDANNOTATIONS>
10  12  8
11  13  8
12  13  8
4  8  6
8  10  8
8  9  8
9  11  8

$$$$
42182836
  -OEChem-12041212012D

 26 27  0     1  0  0  0  0  0999 V2000
    2.0000    2.0185    0.0000 Cl  0  0  0  0  0  0  0  0  0  0  0  0
    6.3301    0.5185    0.0000 O   0  0  0  0  0  0  0  0  0  0  0  0
    6.3301   -1.4815    0.0000 N   0  3  0  0  0  0  0  0  0  0  0  0
    5.4641    0.0185    0.0000 C   0  0  2  0  0  0  0  0  0  0  0  0
    5.4641   -0.9815    0.0000 C   0  0  0  0  0  0  0  0  0  0  0  0
    7.1962   -0.9815    0.0000 C   0  0  0  0  0  0  0  0  0  0  0  0
    7.1962    0.0185    0.0000 C   0  0  0  0  0  0  0  0  0  0  0  0
    4.5981    0.5185    0.0000 C   0  0  0  0  0  0  0  0  0  0  0  0
    4.5981    1.5185    0.0000 C   0  0  0  0  0  0  0  0  0  0  0  0
    3.7320    0.0185    0.0000 C   0  0  0  0  0  0  0  0  0  0  0  0
    3.7320    2.0185    0.0000 C   0  0  0  0  0  0  0  0  0  0  0  0
    2.8660    0.5185    0.0000 C   0  0  0  0  0  0  0  0  0  0  0  0
    2.8660    1.5185    0.0000 C   0  0  0  0  0  0  0  0  0  0  0  0
    5.4641    0.6385    0.0000 H   0  0  0  0  0  0  0  0  0  0  0  0
    4.8535   -0.8739    0.0000 H   0  0  0  0  0  0  0  0  0  0  0  0
    5.2520   -1.5641    0.0000 H   0  0  0  0  0  0  0  0  0  0  0  0
    6.6401   -2.0185    0.0000 H   0  0  0  0  0  0  0  0  0  0  0  0
    6.0201   -2.0185    0.0000 H   0  0  0  0  0  0  0  0  0  0  0  0
    7.4082   -1.5641    0.0000 H   0  0  0  0  0  0  0  0  0  0  0  0
    7.8067   -0.8739    0.0000 H   0  0  0  0  0  0  0  0  0  0  0  0
    7.8067   -0.0892    0.0000 H   0  0  0  0  0  0  0  0  0  0  0  0
    7.4082    0.6011    0.0000 H   0  0  0  0  0  0  0  0  0  0  0  0
    5.1350    1.8285    0.0000 H   0  0  0  0  0  0  0  0  0  0  0  0
    3.7320   -0.6015    0.0000 H   0  0  0  0  0  0  0  0  0  0  0  0
    3.7320    2.6385    0.0000 H   0  0  0  0  0  0  0  0  0  0  0  0
    2.3291    0.2085    0.0000 H   0  0  0  0  0  0  0  0  0  0  0  0
  1 13  1  0  0  0  0
  2  4  1  0  0  0  0
  2  7  1  0  0  0  0
  3  5  1  0  0  0  0
  3  6  1  0  0  0  0
  3 17  1  0  0  0  0
  3 18  1  0  0  0  0
  4  5  1  0  0  0  0
  4  8  1  6  0  0  0
  4 14  1  0  0  0  0
  5 15  1  0  0  0  0
  5 16  1  0  0  0  0
  6  7  1  0  0  0  0
  6 19  1  0  0  0  0
  6 20  1  0  0  0  0
  7 21  1  0  0  0  0
  7 22  1  0  0  0  0
  8  9  2  0  0  0  0
  8 10  1  0  0  0  0
  9 11  1  0  0  0  0
  9 23  1  0  0  0  0
 10 12  2  0  0  0  0
 10 24  1  0  0  0  0
 11 13  2  0  0  0  0
 11 25  1  0  0  0  0
 12 13  1  0  0  0  0
 12 26  1  0  0  0  0
M  CHG  1   3   1
M  END
> <PUBCHEM_COMPOUND_CID>
42182836

> <PUBCHEM_COMPOUND_CANONICALIZED>
1

> <PUBCHEM_CACTVS_COMPLEXITY>
157

> <PUBCHEM_CACTVS_HBOND_ACCEPTOR>
1

> <PUBCHEM_CACTVS_HBOND_DONOR>
1

> <PUBCHEM_CACTVS_ROTATABLE_BOND>
1

> <PUBCHEM_CACTVS_SUBSKEYS>
AAADccByIAAEAAAAAAAAAAAAAAAAAAAAAAA8QAAAAAAAAAABAAAAHgIQAAAADBbhmCYwAILABACAAiBCAAACAAAgBQAIiIAICogKJiKBsxmHMAAk0AGYqAeQwKAOBAAAAAAAAAAIAAAAAAAAAAAAAAAAAA==

> <PUBCHEM_IUPAC_OPENEYE_NAME>
(2S)-2-(4-chlorophenyl)morpholin-4-ium

> <PUBCHEM_IUPAC_CAS_NAME>
(2S)-2-(4-chlorophenyl)morpholin-4-ium

> <PUBCHEM_IUPAC_NAME>
(2S)-2-(4-chlorophenyl)morpholin-4-ium

> <PUBCHEM_IUPAC_SYSTEMATIC_NAME>
(2S)-2-(4-chlorophenyl)morpholin-4-ium

> <PUBCHEM_IUPAC_TRADITIONAL_NAME>
(2S)-2-(4-chlorophenyl)morpholin-4-ium

> <PUBCHEM_IUPAC_INCHI>
InChI=1S/C10H12ClNO/c11-9-3-1-8(2-4-9)10-7-12-5-6-13-10/h1-4,10,12H,5-7H2/p+1/t10-/m1/s1

> <PUBCHEM_IUPAC_INCHIKEY>
ANGMDOVGFNZDLQ-SNVBAGLBSA-O

> <PUBCHEM_XLOGP3>
1.7

> <PUBCHEM_EXACT_MASS>
198.068567

> <PUBCHEM_MOLECULAR_FORMULA>
C10H13ClNO+

> <PUBCHEM_MOLECULAR_WEIGHT>
198.66932

> <PUBCHEM_OPENEYE_CAN_SMILES>
C1COC(C[NH2+]1)C2=CC=C(C=C2)Cl

> <PUBCHEM_OPENEYE_ISO_SMILES>
C1CO[C@H](C[NH2+]1)C2=CC=C(C=C2)Cl

> <PUBCHEM_CACTVS_TPSA>
25.8

> <PUBCHEM_MONOISOTOPIC_WEIGHT>
198.068567

> <PUBCHEM_TOTAL_CHARGE>
1

> <PUBCHEM_HEAVY_ATOM_COUNT>
13

> <PUBCHEM_ATOM_DEF_STEREO_COUNT>
1

> <PUBCHEM_ATOM_UDEF_STEREO_COUNT>
0

> <PUBCHEM_BOND_DEF_STEREO_COUNT>
0

> <PUBCHEM_BOND_UDEF_STEREO_COUNT>
0

> <PUBCHEM_ISOTOPIC_ATOM_COUNT>
0

> <PUBCHEM_COMPONENT_COUNT>
1

> <PUBCHEM_CACTVS_TAUTO_COUNT>
1

> <PUBCHEM_COORDINATE_TYPE>
1
5
255

> <PUBCHEM_BONDANNOTATIONS>
10  12  8
11  13  8
12  13  8
4  8  6
8  10  8
8  9  8
9  11  8

$$$$
