24489237
  -OEChem-11301217362D

 55 58  0     0  0  0  0  0  0999 V2000
    5.6103    1.8297    0.0000 O   0  0  0  0  0  0  0  0  0  0  0  0
    7.2566    1.2916    0.0000 N   0  0  0  0  0  0  0  0  0  0  0  0
    4.6783   -2.6313    0.0000 N   0  0  0  0  0  0  0  0  0  0  0  0
    7.5673    2.2421    0.0000 C   0  0  0  0  0  0  0  0  0  0  0  0
    8.3116    2.9100    0.0000 C   0  0  0  0  0  0  0  0  0  0  0  0
    7.3610    3.2206    0.0000 C   0  0  0  0  0  0  0  0  0  0  0  0
    7.9244    0.5473    0.0000 C   0  0  0  0  0  0  0  0  0  0  0  0
    6.2781    1.0854    0.0000 C   0  0  0  0  0  0  0  0  0  0  0  0
    5.9674    0.1349    0.0000 C   0  0  0  0  0  0  0  0  0  0  0  0
    8.9030    0.7535    0.0000 C   0  0  0  0  0  0  0  0  0  0  0  0
    4.9889   -0.0713    0.0000 C   0  0  0  0  0  0  0  0  0  0  0  0
    9.5708    0.0092    0.0000 C   0  0  0  0  0  0  0  0  0  0  0  0
    9.2136    1.7041    0.0000 C   0  0  0  0  0  0  0  0  0  0  0  0
    4.6783   -1.0219    0.0000 C   0  0  0  0  0  0  0  0  0  0  0  0
   10.8600    1.1660    0.0000 C   0  0  0  0  0  0  0  0  0  0  0  0
   10.5493    0.2155    0.0000 C   0  0  0  0  0  0  0  0  0  0  0  0
   10.1921    1.9103    0.0000 C   0  0  0  0  0  0  0  0  0  0  0  0
    3.7320   -1.3266    0.0000 C   0  0  0  0  0  0  0  0  0  0  0  0
   11.8385    1.3722    0.0000 C   0  0  0  0  0  0  0  0  0  0  0  0
    5.2619   -1.8266    0.0000 C   0  0  0  0  0  0  0  0  0  0  0  0
    3.7320   -2.3266    0.0000 C   0  0  0  0  0  0  0  0  0  0  0  0
    2.8660   -0.8266    0.0000 C   0  0  0  0  0  0  0  0  0  0  0  0
   12.5063    0.6279    0.0000 C   0  0  0  0  0  0  0  0  0  0  0  0
   12.1491    2.3227    0.0000 C   0  0  0  0  0  0  0  0  0  0  0  0
    2.8660   -2.8266    0.0000 C   0  0  0  0  0  0  0  0  0  0  0  0
    2.0000   -1.3266    0.0000 C   0  0  0  0  0  0  0  0  0  0  0  0
    2.0000   -2.3266    0.0000 C   0  0  0  0  0  0  0  0  0  0  0  0
    6.9482    2.2757    0.0000 H   0  0  0  0  0  0  0  0  0  0  0  0
    7.4484    3.8345    0.0000 H   0  0  0  0  0  0  0  0  0  0  0  0
    6.7414    3.2001    0.0000 H   0  0  0  0  0  0  0  0  0  0  0  0
    8.7995    2.5274    0.0000 H   0  0  0  0  0  0  0  0  0  0  0  0
    8.6036    3.4569    0.0000 H   0  0  0  0  0  0  0  0  0  0  0  0
    7.3981    0.2197    0.0000 H   0  0  0  0  0  0  0  0  0  0  0  0
    8.1557   -0.0279    0.0000 H   0  0  0  0  0  0  0  0  0  0  0  0
    5.9880   -0.4848    0.0000 H   0  0  0  0  0  0  0  0  0  0  0  0
    6.5812    0.0475    0.0000 H   0  0  0  0  0  0  0  0  0  0  0  0
    4.9684    0.5483    0.0000 H   0  0  0  0  0  0  0  0  0  0  0  0
    4.3751    0.0160    0.0000 H   0  0  0  0  0  0  0  0  0  0  0  0
    9.3782   -0.5801    0.0000 H   0  0  0  0  0  0  0  0  0  0  0  0
    8.7996    2.1655    0.0000 H   0  0  0  0  0  0  0  0  0  0  0  0
   10.9634   -0.2460    0.0000 H   0  0  0  0  0  0  0  0  0  0  0  0
   10.3847    2.4996    0.0000 H   0  0  0  0  0  0  0  0  0  0  0  0
   11.6459    0.7829    0.0000 H   0  0  0  0  0  0  0  0  0  0  0  0
    5.8819   -1.8266    0.0000 H   0  0  0  0  0  0  0  0  0  0  0  0
    4.8709   -3.2206    0.0000 H   0  0  0  0  0  0  0  0  0  0  0  0
    2.8660   -0.2066    0.0000 H   0  0  0  0  0  0  0  0  0  0  0  0
   12.0449    0.2138    0.0000 H   0  0  0  0  0  0  0  0  0  0  0  0
   12.9204    0.1664    0.0000 H   0  0  0  0  0  0  0  0  0  0  0  0
   12.9678    1.0420    0.0000 H   0  0  0  0  0  0  0  0  0  0  0  0
   12.7385    2.1301    0.0000 H   0  0  0  0  0  0  0  0  0  0  0  0
   12.3417    2.9120    0.0000 H   0  0  0  0  0  0  0  0  0  0  0  0
   11.5598    2.5153    0.0000 H   0  0  0  0  0  0  0  0  0  0  0  0
    2.8660   -3.4466    0.0000 H   0  0  0  0  0  0  0  0  0  0  0  0
    1.4631   -1.0166    0.0000 H   0  0  0  0  0  0  0  0  0  0  0  0
    1.4631   -2.6366    0.0000 H   0  0  0  0  0  0  0  0  0  0  0  0
  1  8  2  0  0  0  0
  2  4  1  0  0  0  0
  2  7  1  0  0  0  0
  2  8  1  0  0  0  0
  3 20  1  0  0  0  0
  3 21  1  0  0  0  0
  3 45  1  0  0  0  0
  4  5  1  0  0  0  0
  4  6  1  0  0  0  0
  4 28  1  0  0  0  0
  5  6  1  0  0  0  0
  5 31  1  0  0  0  0
  5 32  1  0  0  0  0
  6 29  1  0  0  0  0
  6 30  1  0  0  0  0
  7 10  1  0  0  0  0
  7 33  1  0  0  0  0
  7 34  1  0  0  0  0
  8  9  1  0  0  0  0
  9 11  1  0  0  0  0
  9 35  1  0  0  0  0
  9 36  1  0  0  0  0
 10 12  2  0  0  0  0
 10 13  1  0  0  0  0
 11 14  1  0  0  0  0
 11 37  1  0  0  0  0
 11 38  1  0  0  0  0
 12 16  1  0  0  0  0
 12 39  1  0  0  0  0
 13 17  2  0  0  0  0
 13 40  1  0  0  0  0
 14 18  1  0  0  0  0
 14 20  2  0  0  0  0
 15 16  2  0  0  0  0
 15 17  1  0  0  0  0
 15 19  1  0  0  0  0
 16 41  1  0  0  0  0
 17 42  1  0  0  0  0
 18 21  1  0  0  0  0
 18 22  2  0  0  0  0
 19 23  1  0  0  0  0
 19 24  1  0  0  0  0
 19 43  1  0  0  0  0
 20 44  1  0  0  0  0
 21 25  2  0  0  0  0
 22 26  1  0  0  0  0
 22 46  1  0  0  0  0
 23 47  1  0  0  0  0
 23 48  1  0  0  0  0
 23 49  1  0  0  0  0
 24 50  1  0  0  0  0
 24 51  1  0  0  0  0
 24 52  1  0  0  0  0
 25 27  1  0  0  0  0
 25 53  1  0  0  0  0
 26 27  2  0  0  0  0
 26 54  1  0  0  0  0
 27 55  1  0  0  0  0
M  END
> <PUBCHEM_COMPOUND_CID>
24489237

> <PUBCHEM_COMPOUND_CANONICALIZED>
1

> <PUBCHEM_CACTVS_COMPLEXITY>
493

> <PUBCHEM_CACTVS_HBOND_ACCEPTOR>
1

> <PUBCHEM_CACTVS_HBOND_DONOR>
1

> <PUBCHEM_CACTVS_ROTATABLE_BOND>
7

> <PUBCHEM_CACTVS_SUBSKEYS>
AAADceB7IAAAAAAAAAAAAAAAGAAAAWAAAAAwYAAAAAAAAFgB9AAAHgAQAAAADSjBngQ+wPPJkACoAzV3VACCgCAxAiAI2aE4ZJgIIPLAkZGEIAhglgDIyAcYicCOwAAAAAACAACAAAAAAAQAAAAAAAAAAA==

> <PUBCHEM_IUPAC_OPENEYE_NAME>
N-cyclopropyl-3-(1H-indol-3-yl)-N-[(4-isopropylphenyl)methyl]propanamide

> <PUBCHEM_IUPAC_CAS_NAME>
N-cyclopropyl-3-(1H-indol-3-yl)-N-[(4-propan-2-ylphenyl)methyl]propanamide

> <PUBCHEM_IUPAC_NAME>
N-cyclopropyl-3-(1H-indol-3-yl)-N-[(4-propan-2-ylphenyl)methyl]propanamide

> <PUBCHEM_IUPAC_SYSTEMATIC_NAME>
N-cyclopropyl-3-(1H-indol-3-yl)-N-[(4-propan-2-ylphenyl)methyl]propanamide

> <PUBCHEM_IUPAC_TRADITIONAL_NAME>
N-cyclopropyl-3-(1H-indol-3-yl)-N-(4-isopropylbenzyl)propionamide

> <PUBCHEM_IUPAC_INCHI>
InChI=1S/C24H28N2O/c1-17(2)19-9-7-18(8-10-19)16-26(21-12-13-21)24(27)14-11-20-15-25-23-6-4-3-5-22(20)23/h3-10,15,17,21,25H,11-14,16H2,1-2H3

> <PUBCHEM_IUPAC_INCHIKEY>
LBYUJILOXUNATA-UHFFFAOYSA-N

> <PUBCHEM_XLOGP3>
4.9

> <PUBCHEM_EXACT_MASS>
360.220164

> <PUBCHEM_MOLECULAR_FORMULA>
C24H28N2O

> <PUBCHEM_MOLECULAR_WEIGHT>
360.49192

> <PUBCHEM_OPENEYE_CAN_SMILES>
CC(C)C1=CC=C(C=C1)CN(C2CC2)C(=O)CCC3=CNC4=CC=CC=C43

> <PUBCHEM_OPENEYE_ISO_SMILES>
CC(C)C1=CC=C(C=C1)CN(C2CC2)C(=O)CCC3=CNC4=CC=CC=C43

> <PUBCHEM_CACTVS_TPSA>
36.1

> <PUBCHEM_MONOISOTOPIC_WEIGHT>
360.220164

> <PUBCHEM_TOTAL_CHARGE>
0

> <PUBCHEM_HEAVY_ATOM_COUNT>
27

> <PUBCHEM_ATOM_DEF_STEREO_COUNT>
0

> <PUBCHEM_ATOM_UDEF_STEREO_COUNT>
0

> <PUBCHEM_BOND_DEF_STEREO_COUNT>
0

> <PUBCHEM_BOND_UDEF_STEREO_COUNT>
0

> <PUBCHEM_ISOTOPIC_ATOM_COUNT>
0

> <PUBCHEM_COMPONENT_COUNT>
1

> <PUBCHEM_CACTVS_TAUTO_COUNT>
1

> <PUBCHEM_COORDINATE_TYPE>
1
5
255

> <PUBCHEM_BONDANNOTATIONS>
10  12  8
10  13  8
12  16  8
13  17  8
14  18  8
14  20  8
15  16  8
15  17  8
18  21  8
18  22  8
21  25  8
22  26  8
25  27  8
26  27  8
3  20  8
3  21  8

$$$$
