52848785
  -OEChem-11301218042D

 30 31  0     0  0  0  0  0  0999 V2000
    4.4487   -0.4400    0.0000 S   0  0  0  0  0  0  0  0  0  0  0  0
    3.8055   -4.5600    0.0000 F   0  0  0  0  0  0  0  0  0  0  0  0
    4.9915   -3.7897    0.0000 F   0  0  0  0  0  0  0  0  0  0  0  0
    3.0352   -3.3739    0.0000 F   0  0  0  0  0  0  0  0  0  0  0  0
    6.1808    4.5600    0.0000 F   0  0  0  0  0  0  0  0  0  0  0  0
    7.1808    3.5600    0.0000 F   0  0  0  0  0  0  0  0  0  0  0  0
    5.1808    3.5600    0.0000 F   0  0  0  0  0  0  0  0  0  0  0  0
    3.4782   -1.9346    0.0000 N   0  0  0  0  0  0  0  0  0  0  0  0
    2.5000   -2.1425    0.0000 N   0  0  0  0  0  0  0  0  0  0  0  0
    2.6691   -0.5333    0.0000 N   0  0  0  0  0  0  0  0  0  0  0  0
    2.0000   -1.2764    0.0000 N   0  0  0  0  0  0  0  0  0  0  0  0
    5.3147    1.0600    0.0000 C   0  0  0  0  0  0  0  0  0  0  0  0
    4.4487    0.5600    0.0000 C   0  0  0  0  0  0  0  0  0  0  0  0
    4.2213   -2.6037    0.0000 C   0  0  0  0  0  0  0  0  0  0  0  0
    5.3147    2.0600    0.0000 C   0  0  0  0  0  0  0  0  0  0  0  0
    6.1808    2.5600    0.0000 C   0  0  0  0  0  0  0  0  0  0  0  0
    3.5827   -0.9400    0.0000 C   0  0  0  0  0  0  0  0  0  0  0  0
    6.1808    0.5600    0.0000 C   0  0  0  0  0  0  0  0  0  0  0  0
    7.0468    2.0600    0.0000 C   0  0  0  0  0  0  0  0  0  0  0  0
    7.0468    1.0600    0.0000 C   0  0  0  0  0  0  0  0  0  0  0  0
    4.0134   -3.5818    0.0000 C   0  0  0  0  0  0  0  0  0  0  0  0
    6.1808    3.5600    0.0000 C   0  0  0  0  0  0  0  0  0  0  0  0
    4.2366    1.1426    0.0000 H   0  0  0  0  0  0  0  0  0  0  0  0
    3.8381    0.4523    0.0000 H   0  0  0  0  0  0  0  0  0  0  0  0
    4.7962   -2.8359    0.0000 H   0  0  0  0  0  0  0  0  0  0  0  0
    4.5498   -2.0779    0.0000 H   0  0  0  0  0  0  0  0  0  0  0  0
    4.7778    2.3700    0.0000 H   0  0  0  0  0  0  0  0  0  0  0  0
    6.1808   -0.0600    0.0000 H   0  0  0  0  0  0  0  0  0  0  0  0
    7.5837    2.3700    0.0000 H   0  0  0  0  0  0  0  0  0  0  0  0
    7.5837    0.7500    0.0000 H   0  0  0  0  0  0  0  0  0  0  0  0
  1 13  1  0  0  0  0
  1 17  1  0  0  0  0
  2 21  1  0  0  0  0
  3 21  1  0  0  0  0
  4 21  1  0  0  0  0
  5 22  1  0  0  0  0
  6 22  1  0  0  0  0
  7 22  1  0  0  0  0
  8  9  1  0  0  0  0
  8 14  1  0  0  0  0
  8 17  1  0  0  0  0
  9 11  2  0  0  0  0
 10 11  1  0  0  0  0
 10 17  2  0  0  0  0
 12 13  1  0  0  0  0
 12 15  2  0  0  0  0
 12 18  1  0  0  0  0
 13 23  1  0  0  0  0
 13 24  1  0  0  0  0
 14 21  1  0  0  0  0
 14 25  1  0  0  0  0
 14 26  1  0  0  0  0
 15 16  1  0  0  0  0
 15 27  1  0  0  0  0
 16 19  2  0  0  0  0
 16 22  1  0  0  0  0
 18 20  2  0  0  0  0
 18 28  1  0  0  0  0
 19 20  1  0  0  0  0
 19 29  1  0  0  0  0
 20 30  1  0  0  0  0
M  END
> <PUBCHEM_COMPOUND_CID>
52848785

> <PUBCHEM_COMPOUND_CANONICALIZED>
1

> <PUBCHEM_CACTVS_COMPLEXITY>
364

> <PUBCHEM_CACTVS_HBOND_ACCEPTOR>
10

> <PUBCHEM_CACTVS_HBOND_DONOR>
0

> <PUBCHEM_CACTVS_ROTATABLE_BOND>
4

> <PUBCHEM_CACTVS_SUBSKEYS>
AAADccBzgcBAAAAAAAAAAAAAAAAAAWAAAAAwAAAAAAAAAAABwAAAHQQIAAAADADFWBSxEIYIAAiiAiBCJAACEANggJAdyAAIAIiIICKgGRCAIAAggAIIiAcAgEAOAAACAAAAAAAAAAQAAAAAAAAAAAAAAA==

> <PUBCHEM_IUPAC_OPENEYE_NAME>
1-(2,2,2-trifluoroethyl)-5-[[3-(trifluoromethyl)phenyl]methylsulfanyl]tetrazole

> <PUBCHEM_IUPAC_CAS_NAME>
1-(2,2,2-trifluoroethyl)-5-[[3-(trifluoromethyl)phenyl]methylthio]tetrazole

> <PUBCHEM_IUPAC_NAME>
1-(2,2,2-trifluoroethyl)-5-[[3-(trifluoromethyl)phenyl]methylsulfanyl]tetrazole

> <PUBCHEM_IUPAC_SYSTEMATIC_NAME>
5-[[3-(trifluoromethyl)phenyl]methylsulfanyl]-1-[2,2,2-tris(fluoranyl)ethyl]-1,2,3,4-tetrazole

> <PUBCHEM_IUPAC_TRADITIONAL_NAME>
1-(2,2,2-trifluoroethyl)-5-[[3-(trifluoromethyl)benzyl]thio]tetrazole

> <PUBCHEM_IUPAC_INCHI>
InChI=1S/C11H8F6N4S/c12-10(13,14)6-21-9(18-19-20-21)22-5-7-2-1-3-8(4-7)11(15,16)17/h1-4H,5-6H2

> <PUBCHEM_IUPAC_INCHIKEY>
WELYZRFIZLBSJD-UHFFFAOYSA-N

> <PUBCHEM_XLOGP3>
3.6

> <PUBCHEM_EXACT_MASS>
342.037387

> <PUBCHEM_MOLECULAR_FORMULA>
C11H8F6N4S

> <PUBCHEM_MOLECULAR_WEIGHT>
342.263439

> <PUBCHEM_OPENEYE_CAN_SMILES>
C1=CC(=CC(=C1)C(F)(F)F)CSC2=NN=NN2CC(F)(F)F

> <PUBCHEM_OPENEYE_ISO_SMILES>
C1=CC(=CC(=C1)C(F)(F)F)CSC2=NN=NN2CC(F)(F)F

> <PUBCHEM_CACTVS_TPSA>
68.9

> <PUBCHEM_MONOISOTOPIC_WEIGHT>
342.037387

> <PUBCHEM_TOTAL_CHARGE>
0

> <PUBCHEM_HEAVY_ATOM_COUNT>
22

> <PUBCHEM_ATOM_DEF_STEREO_COUNT>
0

> <PUBCHEM_ATOM_UDEF_STEREO_COUNT>
0

> <PUBCHEM_BOND_DEF_STEREO_COUNT>
0

> <PUBCHEM_BOND_UDEF_STEREO_COUNT>
0

> <PUBCHEM_ISOTOPIC_ATOM_COUNT>
0

> <PUBCHEM_COMPONENT_COUNT>
1

> <PUBCHEM_CACTVS_TAUTO_COUNT>
1

> <PUBCHEM_COORDINATE_TYPE>
1
5
255

> <PUBCHEM_BONDANNOTATIONS>
10  11  8
10  17  8
12  15  8
12  18  8
15  16  8
16  19  8
18  20  8
19  20  8
8  17  8
8  9  8
9  11  8

$$$$
