40026515
  -OEChem-12041211562D

 40 41  0     1  0  0  0  0  0999 V2000
    6.6353   -0.8956    0.0000 O   0  0  0  0  0  0  0  0  0  0  0  0
    4.9889   -0.3575    0.0000 N   0  0  0  0  0  0  0  0  0  0  0  0
    6.2781    0.7993    0.0000 N   0  0  0  0  0  0  0  0  0  0  0  0
    4.6783   -1.3080    0.0000 C   0  0  2  0  0  0  0  0  0  0  0  0
    5.2619   -2.1127    0.0000 C   0  0  0  0  0  0  0  0  0  0  0  0
    4.6783   -2.9175    0.0000 C   0  0  0  0  0  0  0  0  0  0  0  0
    3.7320   -1.6127    0.0000 C   0  0  0  0  0  0  0  0  0  0  0  0
    3.7320   -2.6127    0.0000 C   0  0  0  0  0  0  0  0  0  0  0  0
    2.8660   -1.1127    0.0000 C   0  0  0  0  0  0  0  0  0  0  0  0
    7.2566    1.0055    0.0000 C   0  0  1  0  0  0  0  0  0  0  0  0
    2.8660   -3.1127    0.0000 C   0  0  0  0  0  0  0  0  0  0  0  0
    7.5673    1.9560    0.0000 C   0  0  0  0  0  0  0  0  0  0  0  0
    5.9674   -0.1513    0.0000 C   0  0  0  0  0  0  0  0  0  0  0  0
    2.0000   -1.6127    0.0000 C   0  0  0  0  0  0  0  0  0  0  0  0
    2.0000   -2.6127    0.0000 C   0  0  0  0  0  0  0  0  0  0  0  0
    8.5458    2.1622    0.0000 C   0  0  0  0  0  0  0  0  0  0  0  0
    7.9244    0.2612    0.0000 C   0  0  0  0  0  0  0  0  0  0  0  0
    8.8564    3.1127    0.0000 C   0  0  0  0  0  0  0  0  0  0  0  0
    5.2908   -1.2118    0.0000 H   0  0  0  0  0  0  0  0  0  0  0  0
    5.7227   -2.5275    0.0000 H   0  0  0  0  0  0  0  0  0  0  0  0
    5.7227   -1.6980    0.0000 H   0  0  0  0  0  0  0  0  0  0  0  0
    4.4272   -3.4844    0.0000 H   0  0  0  0  0  0  0  0  0  0  0  0
    5.2156   -3.2267    0.0000 H   0  0  0  0  0  0  0  0  0  0  0  0
    4.5749    0.1040    0.0000 H   0  0  0  0  0  0  0  0  0  0  0  0
    7.0640    0.4162    0.0000 H   0  0  0  0  0  0  0  0  0  0  0  0
    2.8660   -0.4927    0.0000 H   0  0  0  0  0  0  0  0  0  0  0  0
    2.8660   -3.7327    0.0000 H   0  0  0  0  0  0  0  0  0  0  0  0
    7.5467    2.5756    0.0000 H   0  0  0  0  0  0  0  0  0  0  0  0
    6.9534    2.0434    0.0000 H   0  0  0  0  0  0  0  0  0  0  0  0
    5.8640    1.2607    0.0000 H   0  0  0  0  0  0  0  0  0  0  0  0
    1.4631   -1.3027    0.0000 H   0  0  0  0  0  0  0  0  0  0  0  0
    1.4631   -2.9227    0.0000 H   0  0  0  0  0  0  0  0  0  0  0  0
    8.5663    1.5426    0.0000 H   0  0  0  0  0  0  0  0  0  0  0  0
    9.1596    2.0749    0.0000 H   0  0  0  0  0  0  0  0  0  0  0  0
    7.4630   -0.1529    0.0000 H   0  0  0  0  0  0  0  0  0  0  0  0
    8.3385   -0.2003    0.0000 H   0  0  0  0  0  0  0  0  0  0  0  0
    8.3859    0.6752    0.0000 H   0  0  0  0  0  0  0  0  0  0  0  0
    9.4458    2.9201    0.0000 H   0  0  0  0  0  0  0  0  0  0  0  0
    9.0490    3.7021    0.0000 H   0  0  0  0  0  0  0  0  0  0  0  0
    8.2671    3.3054    0.0000 H   0  0  0  0  0  0  0  0  0  0  0  0
  1 13  2  0  0  0  0
  4  2  1  6  0  0  0
  2 13  1  0  0  0  0
  2 24  1  0  0  0  0
 10  3  1  1  0  0  0
  3 13  1  0  0  0  0
  3 30  1  0  0  0  0
  4  5  1  0  0  0  0
  4  7  1  0  0  0  0
  4 19  1  0  0  0  0
  5  6  1  0  0  0  0
  5 20  1  0  0  0  0
  5 21  1  0  0  0  0
  6  8  1  0  0  0  0
  6 22  1  0  0  0  0
  6 23  1  0  0  0  0
  7  8  1  0  0  0  0
  7  9  2  0  0  0  0
  8 11  2  0  0  0  0
  9 14  1  0  0  0  0
  9 26  1  0  0  0  0
 10 12  1  0  0  0  0
 10 17  1  0  0  0  0
 10 25  1  0  0  0  0
 11 15  1  0  0  0  0
 11 27  1  0  0  0  0
 12 16  1  0  0  0  0
 12 28  1  0  0  0  0
 12 29  1  0  0  0  0
 14 15  2  0  0  0  0
 14 31  1  0  0  0  0
 15 32  1  0  0  0  0
 16 18  1  0  0  0  0
 16 33  1  0  0  0  0
 16 34  1  0  0  0  0
 17 35  1  0  0  0  0
 17 36  1  0  0  0  0
 17 37  1  0  0  0  0
 18 38  1  0  0  0  0
 18 39  1  0  0  0  0
 18 40  1  0  0  0  0
M  END
> <PUBCHEM_COMPOUND_CID>
40026515

> <PUBCHEM_COMPOUND_CANONICALIZED>
1

> <PUBCHEM_CACTVS_COMPLEXITY>
280

> <PUBCHEM_CACTVS_HBOND_ACCEPTOR>
1

> <PUBCHEM_CACTVS_HBOND_DONOR>
2

> <PUBCHEM_CACTVS_ROTATABLE_BOND>
4

> <PUBCHEM_CACTVS_SUBSKEYS>
AAADceBzIAAAAAAAAAAAAAAAAAAAAYAAAAAwAAAAAAAAAGABAAAAHgAQAAAADCjBGAQzAILAAACIAiBCEACCAAAgAAAIiIAIBIiIICKAkRGEIAholgIIiAcQgIAOgAAAAAAQAAAAAAAAACAAACAACQAAAA==

> <PUBCHEM_IUPAC_OPENEYE_NAME>
1-[(1R)-indan-1-yl]-3-[(1R)-1-methylbutyl]urea

> <PUBCHEM_IUPAC_CAS_NAME>
1-[(1R)-2,3-dihydro-1H-inden-1-yl]-3-[(2R)-pentan-2-yl]urea

> <PUBCHEM_IUPAC_NAME>
1-[(1R)-2,3-dihydro-1H-inden-1-yl]-3-[(2R)-pentan-2-yl]urea

> <PUBCHEM_IUPAC_SYSTEMATIC_NAME>
1-[(1R)-2,3-dihydro-1H-inden-1-yl]-3-[(2R)-pentan-2-yl]urea

> <PUBCHEM_IUPAC_TRADITIONAL_NAME>
1-[(1R)-indan-1-yl]-3-[(1R)-1-methylbutyl]urea

> <PUBCHEM_IUPAC_INCHI>
InChI=1S/C15H22N2O/c1-3-6-11(2)16-15(18)17-14-10-9-12-7-4-5-8-13(12)14/h4-5,7-8,11,14H,3,6,9-10H2,1-2H3,(H2,16,17,18)/t11-,14-/m1/s1

> <PUBCHEM_IUPAC_INCHIKEY>
QHRPPWSYNBBGQT-BXUZGUMPSA-N

> <PUBCHEM_XLOGP3>
3.5

> <PUBCHEM_EXACT_MASS>
246.173213

> <PUBCHEM_MOLECULAR_FORMULA>
C15H22N2O

> <PUBCHEM_MOLECULAR_WEIGHT>
246.34798

> <PUBCHEM_OPENEYE_CAN_SMILES>
CCCC(C)NC(=O)NC1CCC2=CC=CC=C12

> <PUBCHEM_OPENEYE_ISO_SMILES>
CCC[C@@H](C)NC(=O)N[C@@H]1CCC2=CC=CC=C12

> <PUBCHEM_CACTVS_TPSA>
41.1

> <PUBCHEM_MONOISOTOPIC_WEIGHT>
246.173213

> <PUBCHEM_TOTAL_CHARGE>
0

> <PUBCHEM_HEAVY_ATOM_COUNT>
18

> <PUBCHEM_ATOM_DEF_STEREO_COUNT>
2

> <PUBCHEM_ATOM_UDEF_STEREO_COUNT>
0

> <PUBCHEM_BOND_DEF_STEREO_COUNT>
0

> <PUBCHEM_BOND_UDEF_STEREO_COUNT>
0

> <PUBCHEM_ISOTOPIC_ATOM_COUNT>
0

> <PUBCHEM_COMPONENT_COUNT>
1

> <PUBCHEM_CACTVS_TAUTO_COUNT>
3

> <PUBCHEM_COORDINATE_TYPE>
1
5
255

> <PUBCHEM_BONDANNOTATIONS>
11  15  8
14  15  8
4  2  6
10  3  5
7  8  8
7  9  8
8  11  8
9  14  8

$$$$
40026516
  -OEChem-12041211562D

 40 41  0     1  0  0  0  0  0999 V2000
    6.6353   -0.8956    0.0000 O   0  0  0  0  0  0  0  0  0  0  0  0
    4.9889   -0.3575    0.0000 N   0  0  0  0  0  0  0  0  0  0  0  0
    6.2781    0.7993    0.0000 N   0  0  0  0  0  0  0  0  0  0  0  0
    4.6783   -1.3080    0.0000 C   0  0  2  0  0  0  0  0  0  0  0  0
    5.2619   -2.1127    0.0000 C   0  0  0  0  0  0  0  0  0  0  0  0
    4.6783   -2.9175    0.0000 C   0  0  0  0  0  0  0  0  0  0  0  0
    3.7320   -1.6127    0.0000 C   0  0  0  0  0  0  0  0  0  0  0  0
    3.7320   -2.6127    0.0000 C   0  0  0  0  0  0  0  0  0  0  0  0
    2.8660   -1.1127    0.0000 C   0  0  0  0  0  0  0  0  0  0  0  0
    7.2566    1.0055    0.0000 C   0  0  2  0  0  0  0  0  0  0  0  0
    2.8660   -3.1127    0.0000 C   0  0  0  0  0  0  0  0  0  0  0  0
    7.5673    1.9560    0.0000 C   0  0  0  0  0  0  0  0  0  0  0  0
    5.9674   -0.1513    0.0000 C   0  0  0  0  0  0  0  0  0  0  0  0
    2.0000   -1.6127    0.0000 C   0  0  0  0  0  0  0  0  0  0  0  0
    2.0000   -2.6127    0.0000 C   0  0  0  0  0  0  0  0  0  0  0  0
    8.5458    2.1622    0.0000 C   0  0  0  0  0  0  0  0  0  0  0  0
    7.9244    0.2612    0.0000 C   0  0  0  0  0  0  0  0  0  0  0  0
    8.8564    3.1127    0.0000 C   0  0  0  0  0  0  0  0  0  0  0  0
    5.2908   -1.2118    0.0000 H   0  0  0  0  0  0  0  0  0  0  0  0
    5.7227   -2.5275    0.0000 H   0  0  0  0  0  0  0  0  0  0  0  0
    5.7227   -1.6980    0.0000 H   0  0  0  0  0  0  0  0  0  0  0  0
    4.4272   -3.4844    0.0000 H   0  0  0  0  0  0  0  0  0  0  0  0
    5.2156   -3.2267    0.0000 H   0  0  0  0  0  0  0  0  0  0  0  0
    4.5749    0.1040    0.0000 H   0  0  0  0  0  0  0  0  0  0  0  0
    2.8660   -0.4927    0.0000 H   0  0  0  0  0  0  0  0  0  0  0  0
    7.0640    0.4162    0.0000 H   0  0  0  0  0  0  0  0  0  0  0  0
    2.8660   -3.7327    0.0000 H   0  0  0  0  0  0  0  0  0  0  0  0
    7.5467    2.5756    0.0000 H   0  0  0  0  0  0  0  0  0  0  0  0
    6.9534    2.0434    0.0000 H   0  0  0  0  0  0  0  0  0  0  0  0
    5.8640    1.2607    0.0000 H   0  0  0  0  0  0  0  0  0  0  0  0
    1.4631   -1.3027    0.0000 H   0  0  0  0  0  0  0  0  0  0  0  0
    1.4631   -2.9227    0.0000 H   0  0  0  0  0  0  0  0  0  0  0  0
    8.5663    1.5426    0.0000 H   0  0  0  0  0  0  0  0  0  0  0  0
    9.1596    2.0749    0.0000 H   0  0  0  0  0  0  0  0  0  0  0  0
    7.4630   -0.1529    0.0000 H   0  0  0  0  0  0  0  0  0  0  0  0
    8.3385   -0.2003    0.0000 H   0  0  0  0  0  0  0  0  0  0  0  0
    8.3859    0.6752    0.0000 H   0  0  0  0  0  0  0  0  0  0  0  0
    9.4458    2.9201    0.0000 H   0  0  0  0  0  0  0  0  0  0  0  0
    9.0490    3.7021    0.0000 H   0  0  0  0  0  0  0  0  0  0  0  0
    8.2671    3.3054    0.0000 H   0  0  0  0  0  0  0  0  0  0  0  0
  1 13  2  0  0  0  0
  4  2  1  6  0  0  0
  2 13  1  0  0  0  0
  2 24  1  0  0  0  0
 10  3  1  6  0  0  0
  3 13  1  0  0  0  0
  3 30  1  0  0  0  0
  4  5  1  0  0  0  0
  4  7  1  0  0  0  0
  4 19  1  0  0  0  0
  5  6  1  0  0  0  0
  5 20  1  0  0  0  0
  5 21  1  0  0  0  0
  6  8  1  0  0  0  0
  6 22  1  0  0  0  0
  6 23  1  0  0  0  0
  7  8  1  0  0  0  0
  7  9  2  0  0  0  0
  8 11  2  0  0  0  0
  9 14  1  0  0  0  0
  9 25  1  0  0  0  0
 10 12  1  0  0  0  0
 10 17  1  0  0  0  0
 10 26  1  0  0  0  0
 11 15  1  0  0  0  0
 11 27  1  0  0  0  0
 12 16  1  0  0  0  0
 12 28  1  0  0  0  0
 12 29  1  0  0  0  0
 14 15  2  0  0  0  0
 14 31  1  0  0  0  0
 15 32  1  0  0  0  0
 16 18  1  0  0  0  0
 16 33  1  0  0  0  0
 16 34  1  0  0  0  0
 17 35  1  0  0  0  0
 17 36  1  0  0  0  0
 17 37  1  0  0  0  0
 18 38  1  0  0  0  0
 18 39  1  0  0  0  0
 18 40  1  0  0  0  0
M  END
> <PUBCHEM_COMPOUND_CID>
40026516

> <PUBCHEM_COMPOUND_CANONICALIZED>
1

> <PUBCHEM_CACTVS_COMPLEXITY>
280

> <PUBCHEM_CACTVS_HBOND_ACCEPTOR>
1

> <PUBCHEM_CACTVS_HBOND_DONOR>
2

> <PUBCHEM_CACTVS_ROTATABLE_BOND>
4

> <PUBCHEM_CACTVS_SUBSKEYS>
AAADceBzIAAAAAAAAAAAAAAAAAAAAYAAAAAwAAAAAAAAAGABAAAAHgAQAAAADCjBGAQzAILAAACIAiBCEACCAAAgAAAIiIAIBIiIICKAkRGEIAholgIIiAcQgIAOgAAAAAAQAAAAAAAAACAAACAACQAAAA==

> <PUBCHEM_IUPAC_OPENEYE_NAME>
1-[(1R)-indan-1-yl]-3-[(1S)-1-methylbutyl]urea

> <PUBCHEM_IUPAC_CAS_NAME>
1-[(1R)-2,3-dihydro-1H-inden-1-yl]-3-[(2S)-pentan-2-yl]urea

> <PUBCHEM_IUPAC_NAME>
1-[(1R)-2,3-dihydro-1H-inden-1-yl]-3-[(2S)-pentan-2-yl]urea

> <PUBCHEM_IUPAC_SYSTEMATIC_NAME>
1-[(1R)-2,3-dihydro-1H-inden-1-yl]-3-[(2S)-pentan-2-yl]urea

> <PUBCHEM_IUPAC_TRADITIONAL_NAME>
1-[(1R)-indan-1-yl]-3-[(1S)-1-methylbutyl]urea

> <PUBCHEM_IUPAC_INCHI>
InChI=1S/C15H22N2O/c1-3-6-11(2)16-15(18)17-14-10-9-12-7-4-5-8-13(12)14/h4-5,7-8,11,14H,3,6,9-10H2,1-2H3,(H2,16,17,18)/t11-,14+/m0/s1

> <PUBCHEM_IUPAC_INCHIKEY>
QHRPPWSYNBBGQT-SMDDNHRTSA-N

> <PUBCHEM_XLOGP3>
3.5

> <PUBCHEM_EXACT_MASS>
246.173213

> <PUBCHEM_MOLECULAR_FORMULA>
C15H22N2O

> <PUBCHEM_MOLECULAR_WEIGHT>
246.34798

> <PUBCHEM_OPENEYE_CAN_SMILES>
CCCC(C)NC(=O)NC1CCC2=CC=CC=C12

> <PUBCHEM_OPENEYE_ISO_SMILES>
CCC[C@H](C)NC(=O)N[C@@H]1CCC2=CC=CC=C12

> <PUBCHEM_CACTVS_TPSA>
41.1

> <PUBCHEM_MONOISOTOPIC_WEIGHT>
246.173213

> <PUBCHEM_TOTAL_CHARGE>
0

> <PUBCHEM_HEAVY_ATOM_COUNT>
18

> <PUBCHEM_ATOM_DEF_STEREO_COUNT>
2

> <PUBCHEM_ATOM_UDEF_STEREO_COUNT>
0

> <PUBCHEM_BOND_DEF_STEREO_COUNT>
0

> <PUBCHEM_BOND_UDEF_STEREO_COUNT>
0

> <PUBCHEM_ISOTOPIC_ATOM_COUNT>
0

> <PUBCHEM_COMPONENT_COUNT>
1

> <PUBCHEM_CACTVS_TAUTO_COUNT>
3

> <PUBCHEM_COORDINATE_TYPE>
1
5
255

> <PUBCHEM_BONDANNOTATIONS>
11  15  8
14  15  8
4  2  6
10  3  6
7  8  8
7  9  8
8  11  8
9  14  8

$$$$
40026517
  -OEChem-12041211562D

 40 41  0     1  0  0  0  0  0999 V2000
    6.6353   -0.8956    0.0000 O   0  0  0  0  0  0  0  0  0  0  0  0
    4.9889   -0.3575    0.0000 N   0  0  0  0  0  0  0  0  0  0  0  0
    6.2781    0.7993    0.0000 N   0  0  0  0  0  0  0  0  0  0  0  0
    4.6783   -1.3080    0.0000 C   0  0  1  0  0  0  0  0  0  0  0  0
    5.2619   -2.1127    0.0000 C   0  0  0  0  0  0  0  0  0  0  0  0
    4.6783   -2.9175    0.0000 C   0  0  0  0  0  0  0  0  0  0  0  0
    3.7320   -1.6127    0.0000 C   0  0  0  0  0  0  0  0  0  0  0  0
    3.7320   -2.6127    0.0000 C   0  0  0  0  0  0  0  0  0  0  0  0
    2.8660   -1.1127    0.0000 C   0  0  0  0  0  0  0  0  0  0  0  0
    7.2566    1.0055    0.0000 C   0  0  1  0  0  0  0  0  0  0  0  0
    2.8660   -3.1127    0.0000 C   0  0  0  0  0  0  0  0  0  0  0  0
    7.5673    1.9560    0.0000 C   0  0  0  0  0  0  0  0  0  0  0  0
    5.9674   -0.1513    0.0000 C   0  0  0  0  0  0  0  0  0  0  0  0
    2.0000   -1.6127    0.0000 C   0  0  0  0  0  0  0  0  0  0  0  0
    2.0000   -2.6127    0.0000 C   0  0  0  0  0  0  0  0  0  0  0  0
    8.5458    2.1622    0.0000 C   0  0  0  0  0  0  0  0  0  0  0  0
    7.9244    0.2612    0.0000 C   0  0  0  0  0  0  0  0  0  0  0  0
    8.8564    3.1127    0.0000 C   0  0  0  0  0  0  0  0  0  0  0  0
    5.2908   -1.2118    0.0000 H   0  0  0  0  0  0  0  0  0  0  0  0
    5.7227   -2.5275    0.0000 H   0  0  0  0  0  0  0  0  0  0  0  0
    5.7227   -1.6980    0.0000 H   0  0  0  0  0  0  0  0  0  0  0  0
    4.4272   -3.4844    0.0000 H   0  0  0  0  0  0  0  0  0  0  0  0
    5.2156   -3.2267    0.0000 H   0  0  0  0  0  0  0  0  0  0  0  0
    4.5749    0.1040    0.0000 H   0  0  0  0  0  0  0  0  0  0  0  0
    2.8660   -0.4927    0.0000 H   0  0  0  0  0  0  0  0  0  0  0  0
    7.0640    0.4162    0.0000 H   0  0  0  0  0  0  0  0  0  0  0  0
    2.8660   -3.7327    0.0000 H   0  0  0  0  0  0  0  0  0  0  0  0
    7.5467    2.5756    0.0000 H   0  0  0  0  0  0  0  0  0  0  0  0
    6.9534    2.0434    0.0000 H   0  0  0  0  0  0  0  0  0  0  0  0
    5.8640    1.2607    0.0000 H   0  0  0  0  0  0  0  0  0  0  0  0
    1.4631   -1.3027    0.0000 H   0  0  0  0  0  0  0  0  0  0  0  0
    1.4631   -2.9227    0.0000 H   0  0  0  0  0  0  0  0  0  0  0  0
    8.5663    1.5426    0.0000 H   0  0  0  0  0  0  0  0  0  0  0  0
    9.1596    2.0749    0.0000 H   0  0  0  0  0  0  0  0  0  0  0  0
    7.4630   -0.1529    0.0000 H   0  0  0  0  0  0  0  0  0  0  0  0
    8.3385   -0.2003    0.0000 H   0  0  0  0  0  0  0  0  0  0  0  0
    8.3859    0.6752    0.0000 H   0  0  0  0  0  0  0  0  0  0  0  0
    9.4458    2.9201    0.0000 H   0  0  0  0  0  0  0  0  0  0  0  0
    9.0490    3.7021    0.0000 H   0  0  0  0  0  0  0  0  0  0  0  0
    8.2671    3.3054    0.0000 H   0  0  0  0  0  0  0  0  0  0  0  0
  1 13  2  0  0  0  0
  4  2  1  1  0  0  0
  2 13  1  0  0  0  0
  2 24  1  0  0  0  0
 10  3  1  1  0  0  0
  3 13  1  0  0  0  0
  3 30  1  0  0  0  0
  4  5  1  0  0  0  0
  4  7  1  0  0  0  0
  4 19  1  0  0  0  0
  5  6  1  0  0  0  0
  5 20  1  0  0  0  0
  5 21  1  0  0  0  0
  6  8  1  0  0  0  0
  6 22  1  0  0  0  0
  6 23  1  0  0  0  0
  7  8  1  0  0  0  0
  7  9  2  0  0  0  0
  8 11  2  0  0  0  0
  9 14  1  0  0  0  0
  9 25  1  0  0  0  0
 10 12  1  0  0  0  0
 10 17  1  0  0  0  0
 10 26  1  0  0  0  0
 11 15  1  0  0  0  0
 11 27  1  0  0  0  0
 12 16  1  0  0  0  0
 12 28  1  0  0  0  0
 12 29  1  0  0  0  0
 14 15  2  0  0  0  0
 14 31  1  0  0  0  0
 15 32  1  0  0  0  0
 16 18  1  0  0  0  0
 16 33  1  0  0  0  0
 16 34  1  0  0  0  0
 17 35  1  0  0  0  0
 17 36  1  0  0  0  0
 17 37  1  0  0  0  0
 18 38  1  0  0  0  0
 18 39  1  0  0  0  0
 18 40  1  0  0  0  0
M  END
> <PUBCHEM_COMPOUND_CID>
40026517

> <PUBCHEM_COMPOUND_CANONICALIZED>
1

> <PUBCHEM_CACTVS_COMPLEXITY>
280

> <PUBCHEM_CACTVS_HBOND_ACCEPTOR>
1

> <PUBCHEM_CACTVS_HBOND_DONOR>
2

> <PUBCHEM_CACTVS_ROTATABLE_BOND>
4

> <PUBCHEM_CACTVS_SUBSKEYS>
AAADceBzIAAAAAAAAAAAAAAAAAAAAYAAAAAwAAAAAAAAAGABAAAAHgAQAAAADCjBGAQzAILAAACIAiBCEACCAAAgAAAIiIAIBIiIICKAkRGEIAholgIIiAcQgIAOgAAAAAAQAAAAAAAAACAAACAACQAAAA==

> <PUBCHEM_IUPAC_OPENEYE_NAME>
1-[(1S)-indan-1-yl]-3-[(1R)-1-methylbutyl]urea

> <PUBCHEM_IUPAC_CAS_NAME>
1-[(1S)-2,3-dihydro-1H-inden-1-yl]-3-[(2R)-pentan-2-yl]urea

> <PUBCHEM_IUPAC_NAME>
1-[(1S)-2,3-dihydro-1H-inden-1-yl]-3-[(2R)-pentan-2-yl]urea

> <PUBCHEM_IUPAC_SYSTEMATIC_NAME>
1-[(1S)-2,3-dihydro-1H-inden-1-yl]-3-[(2R)-pentan-2-yl]urea

> <PUBCHEM_IUPAC_TRADITIONAL_NAME>
1-[(1S)-indan-1-yl]-3-[(1R)-1-methylbutyl]urea

> <PUBCHEM_IUPAC_INCHI>
InChI=1S/C15H22N2O/c1-3-6-11(2)16-15(18)17-14-10-9-12-7-4-5-8-13(12)14/h4-5,7-8,11,14H,3,6,9-10H2,1-2H3,(H2,16,17,18)/t11-,14+/m1/s1

> <PUBCHEM_IUPAC_INCHIKEY>
QHRPPWSYNBBGQT-RISCZKNCSA-N

> <PUBCHEM_XLOGP3>
3.5

> <PUBCHEM_EXACT_MASS>
246.173213

> <PUBCHEM_MOLECULAR_FORMULA>
C15H22N2O

> <PUBCHEM_MOLECULAR_WEIGHT>
246.34798

> <PUBCHEM_OPENEYE_CAN_SMILES>
CCCC(C)NC(=O)NC1CCC2=CC=CC=C12

> <PUBCHEM_OPENEYE_ISO_SMILES>
CCC[C@@H](C)NC(=O)N[C@H]1CCC2=CC=CC=C12

> <PUBCHEM_CACTVS_TPSA>
41.1

> <PUBCHEM_MONOISOTOPIC_WEIGHT>
246.173213

> <PUBCHEM_TOTAL_CHARGE>
0

> <PUBCHEM_HEAVY_ATOM_COUNT>
18

> <PUBCHEM_ATOM_DEF_STEREO_COUNT>
2

> <PUBCHEM_ATOM_UDEF_STEREO_COUNT>
0

> <PUBCHEM_BOND_DEF_STEREO_COUNT>
0

> <PUBCHEM_BOND_UDEF_STEREO_COUNT>
0

> <PUBCHEM_ISOTOPIC_ATOM_COUNT>
0

> <PUBCHEM_COMPONENT_COUNT>
1

> <PUBCHEM_CACTVS_TAUTO_COUNT>
3

> <PUBCHEM_COORDINATE_TYPE>
1
5
255

> <PUBCHEM_BONDANNOTATIONS>
11  15  8
14  15  8
4  2  5
10  3  5
7  8  8
7  9  8
8  11  8
9  14  8

$$$$
40026518
  -OEChem-12041211562D

 40 41  0     1  0  0  0  0  0999 V2000
    6.6353   -0.8956    0.0000 O   0  0  0  0  0  0  0  0  0  0  0  0
    4.9889   -0.3575    0.0000 N   0  0  0  0  0  0  0  0  0  0  0  0
    6.2781    0.7993    0.0000 N   0  0  0  0  0  0  0  0  0  0  0  0
    4.6783   -1.3080    0.0000 C   0  0  1  0  0  0  0  0  0  0  0  0
    5.2619   -2.1127    0.0000 C   0  0  0  0  0  0  0  0  0  0  0  0
    4.6783   -2.9175    0.0000 C   0  0  0  0  0  0  0  0  0  0  0  0
    3.7320   -1.6127    0.0000 C   0  0  0  0  0  0  0  0  0  0  0  0
    3.7320   -2.6127    0.0000 C   0  0  0  0  0  0  0  0  0  0  0  0
    2.8660   -1.1127    0.0000 C   0  0  0  0  0  0  0  0  0  0  0  0
    7.2566    1.0055    0.0000 C   0  0  2  0  0  0  0  0  0  0  0  0
    2.8660   -3.1127    0.0000 C   0  0  0  0  0  0  0  0  0  0  0  0
    7.5673    1.9560    0.0000 C   0  0  0  0  0  0  0  0  0  0  0  0
    5.9674   -0.1513    0.0000 C   0  0  0  0  0  0  0  0  0  0  0  0
    2.0000   -1.6127    0.0000 C   0  0  0  0  0  0  0  0  0  0  0  0
    2.0000   -2.6127    0.0000 C   0  0  0  0  0  0  0  0  0  0  0  0
    8.5458    2.1622    0.0000 C   0  0  0  0  0  0  0  0  0  0  0  0
    7.9244    0.2612    0.0000 C   0  0  0  0  0  0  0  0  0  0  0  0
    8.8564    3.1127    0.0000 C   0  0  0  0  0  0  0  0  0  0  0  0
    5.2908   -1.2118    0.0000 H   0  0  0  0  0  0  0  0  0  0  0  0
    5.7227   -2.5275    0.0000 H   0  0  0  0  0  0  0  0  0  0  0  0
    5.7227   -1.6980    0.0000 H   0  0  0  0  0  0  0  0  0  0  0  0
    4.4272   -3.4844    0.0000 H   0  0  0  0  0  0  0  0  0  0  0  0
    5.2156   -3.2267    0.0000 H   0  0  0  0  0  0  0  0  0  0  0  0
    4.5749    0.1040    0.0000 H   0  0  0  0  0  0  0  0  0  0  0  0
    2.8660   -0.4927    0.0000 H   0  0  0  0  0  0  0  0  0  0  0  0
    7.0640    0.4162    0.0000 H   0  0  0  0  0  0  0  0  0  0  0  0
    2.8660   -3.7327    0.0000 H   0  0  0  0  0  0  0  0  0  0  0  0
    7.5467    2.5756    0.0000 H   0  0  0  0  0  0  0  0  0  0  0  0
    6.9534    2.0434    0.0000 H   0  0  0  0  0  0  0  0  0  0  0  0
    5.8640    1.2607    0.0000 H   0  0  0  0  0  0  0  0  0  0  0  0
    1.4631   -1.3027    0.0000 H   0  0  0  0  0  0  0  0  0  0  0  0
    1.4631   -2.9227    0.0000 H   0  0  0  0  0  0  0  0  0  0  0  0
    8.5663    1.5426    0.0000 H   0  0  0  0  0  0  0  0  0  0  0  0
    9.1596    2.0749    0.0000 H   0  0  0  0  0  0  0  0  0  0  0  0
    7.4630   -0.1529    0.0000 H   0  0  0  0  0  0  0  0  0  0  0  0
    8.3385   -0.2003    0.0000 H   0  0  0  0  0  0  0  0  0  0  0  0
    8.3859    0.6752    0.0000 H   0  0  0  0  0  0  0  0  0  0  0  0
    9.4458    2.9201    0.0000 H   0  0  0  0  0  0  0  0  0  0  0  0
    9.0490    3.7021    0.0000 H   0  0  0  0  0  0  0  0  0  0  0  0
    8.2671    3.3054    0.0000 H   0  0  0  0  0  0  0  0  0  0  0  0
  1 13  2  0  0  0  0
  4  2  1  1  0  0  0
  2 13  1  0  0  0  0
  2 24  1  0  0  0  0
 10  3  1  6  0  0  0
  3 13  1  0  0  0  0
  3 30  1  0  0  0  0
  4  5  1  0  0  0  0
  4  7  1  0  0  0  0
  4 19  1  0  0  0  0
  5  6  1  0  0  0  0
  5 20  1  0  0  0  0
  5 21  1  0  0  0  0
  6  8  1  0  0  0  0
  6 22  1  0  0  0  0
  6 23  1  0  0  0  0
  7  8  1  0  0  0  0
  7  9  2  0  0  0  0
  8 11  2  0  0  0  0
  9 14  1  0  0  0  0
  9 25  1  0  0  0  0
 10 12  1  0  0  0  0
 10 17  1  0  0  0  0
 10 26  1  0  0  0  0
 11 15  1  0  0  0  0
 11 27  1  0  0  0  0
 12 16  1  0  0  0  0
 12 28  1  0  0  0  0
 12 29  1  0  0  0  0
 14 15  2  0  0  0  0
 14 31  1  0  0  0  0
 15 32  1  0  0  0  0
 16 18  1  0  0  0  0
 16 33  1  0  0  0  0
 16 34  1  0  0  0  0
 17 35  1  0  0  0  0
 17 36  1  0  0  0  0
 17 37  1  0  0  0  0
 18 38  1  0  0  0  0
 18 39  1  0  0  0  0
 18 40  1  0  0  0  0
M  END
> <PUBCHEM_COMPOUND_CID>
40026518

> <PUBCHEM_COMPOUND_CANONICALIZED>
1

> <PUBCHEM_CACTVS_COMPLEXITY>
280

> <PUBCHEM_CACTVS_HBOND_ACCEPTOR>
1

> <PUBCHEM_CACTVS_HBOND_DONOR>
2

> <PUBCHEM_CACTVS_ROTATABLE_BOND>
4

> <PUBCHEM_CACTVS_SUBSKEYS>
AAADceBzIAAAAAAAAAAAAAAAAAAAAYAAAAAwAAAAAAAAAGABAAAAHgAQAAAADCjBGAQzAILAAACIAiBCEACCAAAgAAAIiIAIBIiIICKAkRGEIAholgIIiAcQgIAOgAAAAAAQAAAAAAAAACAAACAACQAAAA==

> <PUBCHEM_IUPAC_OPENEYE_NAME>
1-[(1S)-indan-1-yl]-3-[(1S)-1-methylbutyl]urea

> <PUBCHEM_IUPAC_CAS_NAME>
1-[(1S)-2,3-dihydro-1H-inden-1-yl]-3-[(2S)-pentan-2-yl]urea

> <PUBCHEM_IUPAC_NAME>
1-[(1S)-2,3-dihydro-1H-inden-1-yl]-3-[(2S)-pentan-2-yl]urea

> <PUBCHEM_IUPAC_SYSTEMATIC_NAME>
1-[(1S)-2,3-dihydro-1H-inden-1-yl]-3-[(2S)-pentan-2-yl]urea

> <PUBCHEM_IUPAC_TRADITIONAL_NAME>
1-[(1S)-indan-1-yl]-3-[(1S)-1-methylbutyl]urea

> <PUBCHEM_IUPAC_INCHI>
InChI=1S/C15H22N2O/c1-3-6-11(2)16-15(18)17-14-10-9-12-7-4-5-8-13(12)14/h4-5,7-8,11,14H,3,6,9-10H2,1-2H3,(H2,16,17,18)/t11-,14-/m0/s1

> <PUBCHEM_IUPAC_INCHIKEY>
QHRPPWSYNBBGQT-FZMZJTMJSA-N

> <PUBCHEM_XLOGP3>
3.5

> <PUBCHEM_EXACT_MASS>
246.173213

> <PUBCHEM_MOLECULAR_FORMULA>
C15H22N2O

> <PUBCHEM_MOLECULAR_WEIGHT>
246.34798

> <PUBCHEM_OPENEYE_CAN_SMILES>
CCCC(C)NC(=O)NC1CCC2=CC=CC=C12

> <PUBCHEM_OPENEYE_ISO_SMILES>
CCC[C@H](C)NC(=O)N[C@H]1CCC2=CC=CC=C12

> <PUBCHEM_CACTVS_TPSA>
41.1

> <PUBCHEM_MONOISOTOPIC_WEIGHT>
246.173213

> <PUBCHEM_TOTAL_CHARGE>
0

> <PUBCHEM_HEAVY_ATOM_COUNT>
18

> <PUBCHEM_ATOM_DEF_STEREO_COUNT>
2

> <PUBCHEM_ATOM_UDEF_STEREO_COUNT>
0

> <PUBCHEM_BOND_DEF_STEREO_COUNT>
0

> <PUBCHEM_BOND_UDEF_STEREO_COUNT>
0

> <PUBCHEM_ISOTOPIC_ATOM_COUNT>
0

> <PUBCHEM_COMPONENT_COUNT>
1

> <PUBCHEM_CACTVS_TAUTO_COUNT>
3

> <PUBCHEM_COORDINATE_TYPE>
1
5
255

> <PUBCHEM_BONDANNOTATIONS>
11  15  8
14  15  8
4  2  5
10  3  6
7  8  8
7  9  8
8  11  8
9  14  8

$$$$
40033477
  -OEChem-12041211562D

 49 52  0     0  0  0  0  0  0999 V2000
    5.6103    1.8297    0.0000 O   0  0  0  0  0  0  0  0  0  0  0  0
    7.2566    1.2916    0.0000 N   0  0  0  0  0  0  0  0  0  0  0  0
    4.6783   -2.6313    0.0000 N   0  0  0  0  0  0  0  0  0  0  0  0
    7.5673    2.2421    0.0000 C   0  0  0  0  0  0  0  0  0  0  0  0
    8.3116    2.9100    0.0000 C   0  0  0  0  0  0  0  0  0  0  0  0
    7.3610    3.2206    0.0000 C   0  0  0  0  0  0  0  0  0  0  0  0
    7.9244    0.5473    0.0000 C   0  0  0  0  0  0  0  0  0  0  0  0
    7.6138   -0.4032    0.0000 C   0  0  0  0  0  0  0  0  0  0  0  0
    8.9030    0.7535    0.0000 C   0  0  0  0  0  0  0  0  0  0  0  0
    8.2816   -1.1475    0.0000 C   0  0  0  0  0  0  0  0  0  0  0  0
    9.5708    0.0092    0.0000 C   0  0  0  0  0  0  0  0  0  0  0  0
    9.2601   -0.9413    0.0000 C   0  0  0  0  0  0  0  0  0  0  0  0
    6.2781    1.0854    0.0000 C   0  0  0  0  0  0  0  0  0  0  0  0
    5.9674    0.1349    0.0000 C   0  0  0  0  0  0  0  0  0  0  0  0
    4.9889   -0.0713    0.0000 C   0  0  0  0  0  0  0  0  0  0  0  0
    4.6783   -1.0219    0.0000 C   0  0  0  0  0  0  0  0  0  0  0  0
    3.7320   -1.3266    0.0000 C   0  0  0  0  0  0  0  0  0  0  0  0
    5.2619   -1.8266    0.0000 C   0  0  0  0  0  0  0  0  0  0  0  0
    3.7320   -2.3266    0.0000 C   0  0  0  0  0  0  0  0  0  0  0  0
    2.8660   -0.8266    0.0000 C   0  0  0  0  0  0  0  0  0  0  0  0
    2.8660   -2.8266    0.0000 C   0  0  0  0  0  0  0  0  0  0  0  0
    2.0000   -1.3266    0.0000 C   0  0  0  0  0  0  0  0  0  0  0  0
    2.0000   -2.3266    0.0000 C   0  0  0  0  0  0  0  0  0  0  0  0
    6.9482    2.2757    0.0000 H   0  0  0  0  0  0  0  0  0  0  0  0
    8.7995    2.5274    0.0000 H   0  0  0  0  0  0  0  0  0  0  0  0
    8.6036    3.4569    0.0000 H   0  0  0  0  0  0  0  0  0  0  0  0
    7.4484    3.8345    0.0000 H   0  0  0  0  0  0  0  0  0  0  0  0
    6.7414    3.2001    0.0000 H   0  0  0  0  0  0  0  0  0  0  0  0
    8.1171    1.1366    0.0000 H   0  0  0  0  0  0  0  0  0  0  0  0
    9.4293    1.0812    0.0000 H   0  0  0  0  0  0  0  0  0  0  0  0
    8.6717    1.3288    0.0000 H   0  0  0  0  0  0  0  0  0  0  0  0
    7.0669   -0.1112    0.0000 H   0  0  0  0  0  0  0  0  0  0  0  0
    7.2312   -0.8911    0.0000 H   0  0  0  0  0  0  0  0  0  0  0  0
    7.7553   -1.4751    0.0000 H   0  0  0  0  0  0  0  0  0  0  0  0
    8.5129   -1.7228    0.0000 H   0  0  0  0  0  0  0  0  0  0  0  0
   10.1177   -0.2828    0.0000 H   0  0  0  0  0  0  0  0  0  0  0  0
    9.9534    0.4971    0.0000 H   0  0  0  0  0  0  0  0  0  0  0  0
    9.2807   -1.5609    0.0000 H   0  0  0  0  0  0  0  0  0  0  0  0
    9.8740   -1.0286    0.0000 H   0  0  0  0  0  0  0  0  0  0  0  0
    5.9880   -0.4848    0.0000 H   0  0  0  0  0  0  0  0  0  0  0  0
    6.5812    0.0475    0.0000 H   0  0  0  0  0  0  0  0  0  0  0  0
    4.9684    0.5483    0.0000 H   0  0  0  0  0  0  0  0  0  0  0  0
    4.3751    0.0160    0.0000 H   0  0  0  0  0  0  0  0  0  0  0  0
    5.8819   -1.8266    0.0000 H   0  0  0  0  0  0  0  0  0  0  0  0
    4.8709   -3.2206    0.0000 H   0  0  0  0  0  0  0  0  0  0  0  0
    2.8660   -0.2066    0.0000 H   0  0  0  0  0  0  0  0  0  0  0  0
    2.8660   -3.4466    0.0000 H   0  0  0  0  0  0  0  0  0  0  0  0
    1.4631   -1.0166    0.0000 H   0  0  0  0  0  0  0  0  0  0  0  0
    1.4631   -2.6366    0.0000 H   0  0  0  0  0  0  0  0  0  0  0  0
  1 13  2  0  0  0  0
  2  4  1  0  0  0  0
  2  7  1  0  0  0  0
  2 13  1  0  0  0  0
  3 18  1  0  0  0  0
  3 19  1  0  0  0  0
  3 45  1  0  0  0  0
  4  5  1  0  0  0  0
  4  6  1  0  0  0  0
  4 24  1  0  0  0  0
  5  6  1  0  0  0  0
  5 25  1  0  0  0  0
  5 26  1  0  0  0  0
  6 27  1  0  0  0  0
  6 28  1  0  0  0  0
  7  8  1  0  0  0  0
  7  9  1  0  0  0  0
  7 29  1  0  0  0  0
  8 10  1  0  0  0  0
  8 32  1  0  0  0  0
  8 33  1  0  0  0  0
  9 11  1  0  0  0  0
  9 30  1  0  0  0  0
  9 31  1  0  0  0  0
 10 12  1  0  0  0  0
 10 34  1  0  0  0  0
 10 35  1  0  0  0  0
 11 12  1  0  0  0  0
 11 36  1  0  0  0  0
 11 37  1  0  0  0  0
 12 38  1  0  0  0  0
 12 39  1  0  0  0  0
 13 14  1  0  0  0  0
 14 15  1  0  0  0  0
 14 40  1  0  0  0  0
 14 41  1  0  0  0  0
 15 16  1  0  0  0  0
 15 42  1  0  0  0  0
 15 43  1  0  0  0  0
 16 17  1  0  0  0  0
 16 18  2  0  0  0  0
 17 19  1  0  0  0  0
 17 20  2  0  0  0  0
 18 44  1  0  0  0  0
 19 21  2  0  0  0  0
 20 22  1  0  0  0  0
 20 46  1  0  0  0  0
 21 23  1  0  0  0  0
 21 47  1  0  0  0  0
 22 23  2  0  0  0  0
 22 48  1  0  0  0  0
 23 49  1  0  0  0  0
M  END
> <PUBCHEM_COMPOUND_CID>
40033477

> <PUBCHEM_COMPOUND_CANONICALIZED>
1

> <PUBCHEM_CACTVS_COMPLEXITY>
414

> <PUBCHEM_CACTVS_HBOND_ACCEPTOR>
1

> <PUBCHEM_CACTVS_HBOND_DONOR>
1

> <PUBCHEM_CACTVS_ROTATABLE_BOND>
5

> <PUBCHEM_CACTVS_SUBSKEYS>
AAADceB7IAAAAAAAAAAAAAAAGAAAAWAAAAAwYAAAAAAAAFgB8AAAHgAQAAAADCjBngQ8wPPJkACoAzV3VACCgCAxAiAI2aE4ZJgIIPLAkZGEIAhglgDIyAcYicCOgAAAAAACAAAAAAAAAAQAAAAAAAAAAA==

> <PUBCHEM_IUPAC_OPENEYE_NAME>
N-cyclohexyl-N-cyclopropyl-3-(1H-indol-3-yl)propanamide

> <PUBCHEM_IUPAC_CAS_NAME>
N-cyclohexyl-N-cyclopropyl-3-(1H-indol-3-yl)propanamide

> <PUBCHEM_IUPAC_NAME>
N-cyclohexyl-N-cyclopropyl-3-(1H-indol-3-yl)propanamide

> <PUBCHEM_IUPAC_SYSTEMATIC_NAME>
N-cyclohexyl-N-cyclopropyl-3-(1H-indol-3-yl)propanamide

> <PUBCHEM_IUPAC_TRADITIONAL_NAME>
N-cyclohexyl-N-cyclopropyl-3-(1H-indol-3-yl)propionamide

> <PUBCHEM_IUPAC_INCHI>
InChI=1S/C20H26N2O/c23-20(22(17-11-12-17)16-6-2-1-3-7-16)13-10-15-14-21-19-9-5-4-8-18(15)19/h4-5,8-9,14,16-17,21H,1-3,6-7,10-13H2

> <PUBCHEM_IUPAC_INCHIKEY>
YRGQCVRQMZPQFZ-UHFFFAOYSA-N

> <PUBCHEM_XLOGP3>
4

> <PUBCHEM_EXACT_MASS>
310.204513

> <PUBCHEM_MOLECULAR_FORMULA>
C20H26N2O

> <PUBCHEM_MOLECULAR_WEIGHT>
310.43324

> <PUBCHEM_OPENEYE_CAN_SMILES>
C1CCC(CC1)N(C2CC2)C(=O)CCC3=CNC4=CC=CC=C43

> <PUBCHEM_OPENEYE_ISO_SMILES>
C1CCC(CC1)N(C2CC2)C(=O)CCC3=CNC4=CC=CC=C43

> <PUBCHEM_CACTVS_TPSA>
36.1

> <PUBCHEM_MONOISOTOPIC_WEIGHT>
310.204513

> <PUBCHEM_TOTAL_CHARGE>
0

> <PUBCHEM_HEAVY_ATOM_COUNT>
23

> <PUBCHEM_ATOM_DEF_STEREO_COUNT>
0

> <PUBCHEM_ATOM_UDEF_STEREO_COUNT>
0

> <PUBCHEM_BOND_DEF_STEREO_COUNT>
0

> <PUBCHEM_BOND_UDEF_STEREO_COUNT>
0

> <PUBCHEM_ISOTOPIC_ATOM_COUNT>
0

> <PUBCHEM_COMPONENT_COUNT>
1

> <PUBCHEM_CACTVS_TAUTO_COUNT>
1

> <PUBCHEM_COORDINATE_TYPE>
1
5
255

> <PUBCHEM_BONDANNOTATIONS>
16  17  8
16  18  8
17  19  8
17  20  8
19  21  8
20  22  8
21  23  8
22  23  8
3  18  8
3  19  8

$$$$
